2305
 Atoms. Timestep: 300
1 10.4733 6.54397 1.59334
1 10.7624 5.23766 2.27948
1 12.2516 4.85369 2.23197
1 12.5929 3.56986 3.01991
1 12.9077 2.36086 2.1625
1 14.1656 2.50786 1.30851
1 14.9435 1.22592 1.08696
1 14.045 0.20193 0.44538
1 14.8581 14.5831 -0.580203
1 14.2364 13.243 -0.991975
1 14.4462 12.1463 0.05343
1 15.8941 11.6494 0.14492
1 16.1562 11.2253 1.60214
1 17.5259 10.5802 1.81979
1 18.6518 11.6376 1.77964
1 0.45067 11.018 1.90695
1 1.72299 11.8016 2.15934
1 2.88656 11.0564 1.46554
1 4.22379 11.7418 1.74541
1 4.8903 11.4088 3.05219
1 6.31082 11.9622 3.1714
1 6.43479 13.4876 2.88328
1 7.80726 13.9627 3.37347
1 7.81006 0.27516 3.38259
1 9.18319 0.94093 3.27454
1 10.1582 0.7574 4.41556
1 9.80568 1.70871 5.59685
1 10.9464 2.03922 6.54242
1 10.4259 2.6505 7.9079
1 9.87546 4.01818 7.64884
2 11.0127 7.47931 1.92539
2 10.7409 6.3541 0.56722
2 9.44764 6.94295 1.6065
2 10.3479 5.23255 3.26684
2 10.2796 4.37397 1.75423
2 12.8187 5.68177 2.68945
2 12.5721 4.6195 1.21557
2 13.5278 3.85101 3.48257
2 11.7819 3.39173 3.70309
2 12.0401 1.98251 1.62276
2 13.1299 1.5908 2.90099
2 13.895 2.83136 0.29284
2 14.8575 3.23043 1.7278
2 15.3932 0.744086 1.96955
2 15.7269 1.56523 0.39088
2 13.6027 14.7312 1.19465
2 13.2158 0.674614 -0.080551
2 15.8649 14.4316 -0.196776
2 14.9755 0.0279807 -1.46836
2 13.1705 13.3792 -1.17835
2 14.672 12.9137 -1.93594
2 13.7877 11.3029 -0.159637
2 14.1522 12.5201 1.04704
2 16.0415 10.8107 -0.53578
2 16.6046 12.4159 -0.151202
2 15.3383 10.5548 1.8017
2 16.049 12.0874 2.29398
2 17.5133 10.0926 2.82135
2 17.7119 9.70421 1.22277
2 18.5355 12.3074 2.67832
2 18.5855 12.3718 0.99765
2 0.396915 10.1964 2.64594
2 0.602535 10.3537 1.05001
2 1.90104 11.7906 3.22339
2 1.64182 12.8106 1.7155
2 2.92418 9.99411 1.82266
2 2.75475 11.0534 0.32921
2 3.97548 12.7367 1.82829
2 4.88317 11.5278 0.89355
2 4.24113 11.8404 3.79108
2 4.89966 10.3724 3.2875
2 7.00713 11.549 2.46141
2 6.66903 11.7262 4.18904
2 6.32364 13.8236 1.80956
2 5.67879 14.0691 3.42153
2 8.55347 13.602 2.66408
2 8.06724 13.5028 4.32401
2 7.23547 0.564706 2.5003
2 7.29643 0.645176 4.27916
2 9.06375 2.01637 3.03468
2 9.66033 0.565686 2.3675
2 10.1579 14.8978 4.80107
2 11.1509 0.917626 3.98967
2 8.89796 1.31741 6.0326
2 9.51456 2.68711 5.18114
2 11.3854 1.03888 6.7837
2 11.7459 2.72336 6.26595
2 11.2317 2.6872 8.63224
2 9.57774 2.07332 8.2289
2 9.77652 4.56738 8.60263
2 8.96831 4.07475 7.00564
2 10.4914 4.48164 6.82582
1 5.90273 13.2186 6.86656
1 6.23606 14.7096 6.7316
1 6.21123 0.22165 8.27314
1 6.16175 1.70672 8.19058
1 6.57836 2.38742 9.50275
1 6.15238 3.90157 9.41344
1 6.69655 4.63266 10.6047
1 5.82864 5.86815 10.9445
1 6.20607 6.65452 12.2325
1 5.88498 5.87857 13.5192
1 5.82613 6.71742 14.8609
1 4.47444 7.36516 15.229
1 3.47145 6.28925 15.6971
1 2.04265 6.78391 15.9312
1 1.26657 7.03184 14.6277
1 19.3609 7.45153 14.8717
1 18.6952 5.97145 14.9451
1 17.244 5.97071 15.4384
1 16.2475 6.43614 14.3819
1 14.8079 6.36532 14.8768
1 13.7368 6.95927 13.9512
1 13.1768 5.85727 13.0516
1 11.9339 6.21459 12.2447
1 10.5747 5.98236 12.9369
1 10.2393 4.55561 13.3278
1 10.2657 3.47089 12.2356
1 9.5792 2.19436 12.6802
1 10.3971 1.37425 13.6989
1 10.0976 14.9876 13.6341
1 8.6863 14.6803 14.1367
2 4.98701 12.9546 7.41294
2 5.80917 12.7605 5.91908
2 6.65165 12.6565 7.44929
2 7.24129 14.7738 6.31524
2 5.59124 0.01949 5.97703
2 7.06554 15.1033 8.89513
2 5.34594 15.0448 8.83908
2 6.74887 2.0304 7.31402
2 5.13692 2.00962 7.97057
2 7.65978 2.43148 9.63959
2 6.16371 1.86956 10.3818
2 6.49843 4.32964 8.47758
2 5.0617 3.87038 9.41154
2 7.7058 5.01958 10.4339
2 6.7348 3.9143 11.4208
2 5.99204 6.49949 10.1382
2 4.78833 5.53217 10.878
2 5.82424 7.74361 12.2543
2 7.27115 6.89729 12.1806
2 4.97891 5.3218 13.2648
2 6.70022 5.17158 13.599
2 6.55054 7.54945 14.9073
2 6.11017 6.0536 15.6777
2 4.66343 7.98992 16.1029
2 4.11498 8.10434 14.4896
2 3.84008 5.90034 16.6466
2 3.45574 5.41894 15.043
2 1.53457 6.03407 16.5325
2 2.05486 7.68851 16.5364
2 1.36752 6.13022 13.9528
2 1.60396 8.09745 14.2564
2 19.2231 8.0287 15.7829
2 18.9769 7.99235 13.9991
2 19.2393 5.38727 15.682
2 18.7982 5.41602 14.0605
2 16.9876 4.95077 15.7334
2 17.1595 6.58033 16.34
2 16.3505 5.75948 13.5241
2 16.4641 7.48809 14.1046
2 14.558 5.34215 15.1528
2 14.7621 6.93169 15.8022
2 14.0071 8.00006 13.5372
2 12.9672 7.37607 14.6297
2 13.9657 5.43863 12.4265
2 12.9482 4.95704 13.6676
2 11.9517 5.80269 11.2438
2 11.975 7.36022 11.8918
2 10.3565 6.71894 13.7089
2 9.94959 6.18135 12.0206
2 9.2362 4.47011 13.7445
2 10.88 4.06209 14.0776
2 9.72774 3.85279 11.3585
2 11.2766 3.31042 11.8539
2 9.42383 1.61187 11.7712
2 8.58759 2.41885 13.077
2 11.4643 1.53327 13.537
2 10.1523 1.62727 14.6965
2 10.8265 14.3382 14.1259
2 10.1996 14.6099 12.6846
2 8.53389 14.934 15.1848
2 8.47022 13.6322 13.9782
2 7.94382 0.00938 13.5224
1 13.4116 14.7341 -4.45712
1 13.8057 0.840274 -5.19589
1 15.3064 0.946407 -5.49705
1 15.815 14.9809 -6.38689
1 17.2699 15.1489 -6.84738
1 17.5408 1.20966 -7.71694
1 16.5985 1.31642 -8.92206
1 17.131 2.22193 -10.0368
1 17.4515 3.6501 -9.58194
1 17.6878 4.57158 -10.7839
1 18.3638 5.89899 -10.4264
1 17.5559 6.7687 -9.45736
1 18.1911 8.15283 -9.29464
1 17.5067 8.99966 -8.2149
1 17.9432 10.4707 -8.23162
1 19.4496 10.6707 -8.0227
1 0.254017 12.1525 -7.97567
1 1.77334 12.358 -7.97343
1 2.19143 13.8129 -8.23045
1 1.68702 14.8246 -7.19364
1 2.302 14.6253 -5.80411
1 1.72886 0.397343 -4.74716
1 2.10169 1.87091 -4.95641
1 1.60964 2.78578 -3.82176
1 2.2104 2.48823 -2.43835
1 3.72534 2.72993 -2.37196
1 4.35135 2.34243 -1.02573
1 4.28323 0.84422 -0.695223
1 4.89712 15.1216 -1.77732
1 5.0169 13.6674 -1.32378
2 13.9906 14.62 -3.54333
2 12.3568 14.7569 -4.1818
2 13.5667 13.8465 -5.06997
2 13.2387 0.912307 -6.12414
2 13.5098 1.69854 -4.59219
2 15.875 0.975375 -4.56765
2 15.4754 1.90391 -5.98879
2 15.7539 14.0427 -5.83554
2 15.1588 14.8606 -7.2483
2 17.5531 14.26 -7.41157
2 17.9282 -0.00723351 -5.9782
2 17.4842 2.11617 -7.11471
2 18.5692 1.15316 -8.07325
2 15.6199 1.67216 -8.59867
2 16.4402 0.323871 -9.3445
2 18.0203 1.77157 -10.4785
2 16.3835 2.25778 -10.8298
2 18.3386 3.64025 -8.94884
2 16.632 4.0384 -8.97741
2 18.3241 4.0567 -11.5042
2 16.7434 4.76145 -11.2948
2 18.5261 6.45419 -11.3509
2 19.3531 5.70496 -10.0113
2 16.5346 6.87654 -9.8237
2 17.4961 6.27964 -8.48526
2 18.153 8.67876 -10.2489
2 19.2444 8.02764 -9.04509
2 16.427 8.96392 -8.36291
2 17.6957 8.5679 -7.23189
2 17.398 11.0051 -7.45289
2 17.6437 10.9238 -9.17712
2 0.189673 10.182 -7.10129
2 0.418994 10.1983 -8.83802
2 19.39 12.6099 -7.09021
2 19.4048 12.6583 -8.84214
2 2.20214 11.989 -7.04324
2 2.21297 11.7476 -8.76237
2 1.83106 14.1133 -9.21479
2 3.27912 13.8676 -8.28488
2 1.93321 0.645976 -7.55654
2 0.601667 14.79 -7.13103
2 3.38572 14.732 -5.85161
2 2.11198 13.6076 -5.46571
2 0.645056 0.301589 -4.71346
2 2.09553 0.0517767 -3.7831
2 1.65184 2.22411 -5.88419
2 3.17674 1.97146 -5.09685
2 1.81907 3.82242 -4.08774
2 0.52363 2.70987 -3.75697
2 1.96249 1.47283 -2.13674
2 1.72371 3.13084 -1.70447
2 4.24261 2.20318 -3.17044
2 3.91817 3.78764 -2.55079
2 3.8786 2.91036 -0.223991
2 5.39763 2.64905 -1.03194
2 4.82483 0.685224 0.23555
2 3.25444 0.542183 -0.497615
2 5.88548 0.31413 -2.0508
2 4.28846 15.1495 -2.68057
2 5.70928 13.5688 -0.488896
2 5.38419 13.0397 -2.13583
2 4.04928 13.2756 -1.0109
1 17.8422 14.7159 -2.61812
1 18.8489 13.6049 -2.31756
1 19.1114 12.7201 -3.54269
1 0.477037 11.5453 -3.26626
1 1.8077 11.9631 -2.62584
1 2.90055 10.9041 -2.79478
1 3.59396 11.0027 -4.15742
1 4.60308 9.87245 -4.38256
1 5.34006 9.9977 -5.72151
1 6.78674 10.4922 -5.59433
1 6.91187 11.8867 -4.96817
1 8.2984 12.5184 -5.16123
1 9.47428 11.684 -4.63168
1 9.37321 11.369 -3.13583
1 10.6651 10.7493 -2.58641
1 10.4843 10.0842 -1.21696
1 10.0129 11.0559 -0.130317
1 9.79239 10.3892 1.21372
1 11.0929 10.1944 1.99446
1 11.5935 11.4935 2.61372
1 12.6909 11.4603 3.69215
1 13.0191 12.8385 4.29855
1 14.2958 12.8122 5.15114
1 14.2808 11.7828 6.25339
1 13.191 12.0205 7.31467
1 13.4407 11.3864 8.81526
1 13.7822 9.87736 9.00476
1 13.8446 9.65875 10.5329
1 15.0941 10.144 11.2593
1 16.4488 9.55116 10.874
2 16.884 14.3044 -2.93614
2 17.6682 0.152198 -1.73345
2 18.2042 0.197815 -3.40767
2 0.197408 14.0663 -1.97356
2 18.4781 12.9929 -1.49623
2 19.5199 13.3196 -4.35385
2 18.1662 12.3243 -3.91566
2 19.5575 10.8164 -2.62571
2 0.660555 11.0394 -4.2138
2 1.64445 12.1414 -1.56255
2 2.15684 12.9065 -3.04381
2 3.65011 11.037 -2.01505
2 2.47652 9.91097 -2.64864
2 4.09288 11.9682 -4.23564
2 2.84955 10.9738 -4.95142
2 5.31725 9.82136 -3.56102
2 4.06332 8.92524 -4.37457
2 4.77869 10.6348 -6.40529
2 5.36609 9.01302 -6.18992
2 7.36525 9.77045 -5.01775
2 7.22731 10.5092 -6.59154
2 6.66176 11.8489 -3.90855
2 6.17604 12.5483 -5.42564
2 8.45606 12.7116 -6.22297
2 8.30678 13.4967 -4.67923
2 10.3933 12.2421 -4.81389
2 9.56864 10.7597 -5.20153
2 9.14597 12.2867 -2.59392
2 8.54279 10.6846 -2.96448
2 11.4468 11.5078 -2.53153
2 11.0223 9.99212 -3.28484
2 9.77377 9.26251 -1.30805
2 11.4319 9.63654 -0.917183
2 9.07844 11.5313 -0.425647
2 10.7429 11.839 0.03379
2 9.14461 11.0489 1.80322
2 9.25495 9.44993 1.09843
2 11.839 9.56051 1.49354
2 10.7852 9.52787 2.78175
2 11.9963 12.0512 1.79236
2 10.6961 11.9564 2.9872
2 13.5531 11.0987 3.11687
2 12.407 10.827 4.5142
2 13.1877 13.602 3.58502
2 12.1625 13.1881 4.86922
2 14.602 13.7955 5.52908
2 15.0909 12.2827 4.60205
2 14.2391 10.7545 5.92616
2 15.2751 11.9104 6.66928
2 12.2255 11.7317 6.89193
2 13.1324 13.1052 7.69371
2 14.2481 12.0285 9.15179
2 12.5357 11.4847 9.40847
2 14.7043 9.5711 8.50844
2 12.9701 9.2917 8.58072
2 12.9651 10.0574 11.0371
2 13.761 8.62955 10.7195
2 14.959 9.93883 12.3424
2 15.199 11.1507 11.1715
2 16.4551 8.47498 10.6419
2 17.1092 9.87571 11.7059
2 16.821 10.071 9.99222
1 0.293649 1.68132 1.60665
1 1.31858 2.54469 2.32549
1 1.45734 2.23377 3.831
1 2.33377 3.22577 4.6234
1 3.72938 3.473 4.03687
1 4.83791 3.28411 5.06793
1 6.26166 3.60063 4.58993
1 6.37235 5.00142 3.83036
1 5.77619 6.22569 4.6003
1 6.36509 6.55504 6.00613
1 7.66587 7.38211 5.85027
1 8.33875 7.76934 7.13677
1 9.14389 9.08156 7.10675
1 10.3572 9.02189 6.173
1 11.2487 7.81707 6.48924
1 12.431 7.72558 5.50517
1 13.1126 6.33975 5.47293
1 13.9264 6.10296 6.74551
1 13.4217 5.14103 7.94824
1 14.2353 5.20564 9.24868
1 15.61 4.58944 9.03664
1 16.2797 4.28263 10.3313
1 17.6754 3.69948 10.2233
1 18.8149 4.52714 9.62992
1 19.1654 5.58997 10.6814
1 0.934171 6.30248 10.713
1 0.981618 7.54517 9.61755
1 0.942863 6.94011 8.14156
1 2.08969 6.04901 7.62035
1 3.43165 6.72951 7.94728
2 0.475201 0.58412 1.67328
2 18.8449 1.89589 1.89767
2 0.325307 1.99194 0.50648
2 2.30281 2.48311 1.88087
2 1.01313 3.58387 2.21958
2 1.88977 1.24827 3.9366
2 0.481379 2.22056 4.32166
2 1.83405 4.18355 4.82369
2 2.45573 2.6594 5.56041
2 3.73819 4.50721 3.59584
2 3.92237 2.68692 3.27927
2 4.5948 3.92376 5.89334
2 4.81009 2.27869 5.3961
2 6.67778 2.80001 4.00647
2 6.9365 3.70709 5.42797
2 7.41704 5.25478 3.63466
2 5.92971 4.94447 2.82404
2 4.70298 6.09325 4.71392
2 5.84349 7.1784 3.94721
2 5.70911 7.34959 6.40797
2 6.45492 5.69214 6.61374
2 7.52831 8.30698 5.24247
2 8.27377 6.59014 5.326
2 7.65079 7.77711 8.02553
2 8.82154 6.83076 7.62065
2 9.35451 9.33943 8.23658
2 8.56791 9.92736 6.66144
2 10.0198 8.96206 5.14229
2 10.9669 9.90267 6.28626
2 10.8717 6.72569 6.12158
2 11.4075 7.66241 7.69924
2 11.988 7.92534 4.55851
2 13.1849 8.48619 5.66331
2 13.8938 6.37554 4.73257
2 12.4975 5.44134 5.26747
2 14.9526 5.90293 6.47096
2 14.0775 7.00906 7.2208
2 13.4617 4.23645 7.26673
2 12.3691 5.30682 8.1679
2 14.3114 6.27887 9.55866
2 13.6325 4.69741 9.9709
2 16.2864 5.24 8.52285
2 15.4948 3.72469 8.46565
2 16.3119 5.18168 10.9166
2 15.6513 3.58256 10.8774
2 17.6062 2.77438 9.66923
2 17.9075 3.28571 11.2619
2 19.5649 3.70995 9.50434
2 18.552 4.86674 8.63292
2 19.1871 4.9908 11.6162
2 18.3528 6.29362 10.8561
2 1.05097 6.71439 11.6407
2 1.83855 5.72482 10.6446
2 1.86227 8.18331 9.7541
2 0.170908 8.28532 9.71857
2 0.0038419 6.48775 7.81944
2 0.964241 7.93974 7.35537
2 2.01446 6.06908 6.49152
2 2.04763 4.97321 8.0179
2 3.72517 6.80721 9.0042
2 3.47185 7.7539 7.20479
2 4.05042 6.02725 7.30532
1 9.99949 5.35586 16.8429
1 10.8513 4.18553 17.3371
1 12.2724 4.62036 17.7045
1 13.0505 3.54591 18.4756
1 13.4096 2.30174 17.6561
1 14.3105 2.63451 16.4639
1 15.1354 1.44431 15.9712
1 14.2848 0.233005 15.5754
1 15.0184 14.5632 14.5244
1 14.3265 13.2509 14.1357
1 14.5058 12.1828 15.2088
1 15.94 11.6399 15.3355
1 16.2335 11.2698 16.7923
1 17.5616 10.5355 17.0011
1 18.8011 11.4329 16.9334
1 0.494863 10.5857 17.0226
1 1.78177 11.3727 17.2644
1 2.98396 10.4393 17.088
1 4.34262 11.1156 17.2695
1 4.72167 11.3552 18.7353
1 6.15075 11.8916 18.8838
1 6.29325 13.3604 18.4629
1 7.73155 13.8669 18.603
1 7.85362 0.173077 18.2359
1 9.30645 0.637154 18.0762
1 10.1494 0.559916 19.3557
1 9.65797 1.48519 20.4738
1 10.6811 1.58289 21.6111
1 10.1625 2.35415 22.8293
1 9.78081 3.80411 22.5191
2 9.87 6.10604 17.6234
2 10.4625 5.8414 15.9843
2 9.00841 5.01344 16.5431
2 10.3676 3.74898 18.2098
2 10.883 3.41046 16.5714
2 12.2075 5.50355 18.3375
2 12.8145 4.93806 16.8145
2 13.9689 3.98601 18.8655
2 12.4746 3.24492 19.3505
2 12.5088 1.78993 17.3176
2 13.9256 1.60245 18.3146
2 13.7059 3.02682 15.6455
2 15.0023 3.42911 16.7433
2 15.8662 1.15136 16.7258
2 15.7123 1.78094 15.1092
2 14.0501 14.8254 16.4645
2 13.3398 0.592736 15.1668
2 16.0547 14.4468 14.826
2 15.0795 0.034596 13.6465
2 13.2483 13.4005 14.0918
2 14.6488 12.8171 13.1725
2 13.7989 11.4056 14.9543
2 14.1718 12.5739 16.1671
2 16.0754 10.6924 14.7434
2 16.5965 12.4877 15.0429
2 15.4331 10.6116 17.1284
2 16.1881 12.1498 17.4315
2 17.5378 10.0736 17.9877
2 17.6422 9.71613 16.2882
2 18.7732 12.1514 17.7527
2 18.8124 12.0057 16.0053
2 0.387089 9.84337 17.8133
2 0.601326 10.0377 16.0886
2 1.7717 11.8105 18.2631
2 1.85012 12.1951 16.5535
2 2.90327 9.58812 17.7633
2 2.94994 10.0306 16.0778
2 4.35785 12.048 16.712
2 5.09793 10.4743 16.8156
2 4.01547 12.0352 19.211
2 4.65247 10.4101 19.2761
2 6.83505 11.2667 18.3107
2 6.45613 11.7883 19.9258
2 5.9762 13.487 17.4283
2 5.63217 13.9783 19.0715
2 8.38133 13.2793 17.9549
2 8.07461 13.7105 19.6255
2 7.34067 0.347476 17.2897
2 7.3334 0.782735 18.9732
2 9.30896 1.66017 17.7021
2 9.7916 0.0428305 17.3016
2 10.2034 14.7094 19.7152
2 11.1709 0.837765 19.0992
2 8.7106 1.11872 20.8683
2 9.4689 2.47526 20.0614
2 10.9545 0.577008 21.9317
2 11.5988 2.04549 21.2481
2 10.9325 2.35413 23.6009
2 9.30673 1.83119 23.2538
2 9.5357 4.34197 23.4357
2 8.91009 3.86238 21.8686
2 10.6034 4.32755 22.0341
1 5.67059 13.4659 22.3529
1 5.82503 14.9858 22.2898
1 6.38999 0.398384 23.5854
1 6.26077 1.92126 23.6056
1 6.75367 2.54486 24.9132
1 6.27713 3.99168 25.0389
1 6.74769 4.66625 26.328
1 6.00099 5.98493 26.555
1 6.41044 6.72309 27.8303
1 6.19775 5.88892 29.0984
1 5.83076 6.75001 30.3113
1 4.34869 7.15539 30.3482
1 3.42203 5.99336 30.7369
1 1.97631 6.42491 31.0077
1 1.18967 6.7822 29.737
1 19.2831 7.07432 30.009
1 18.4529 5.81749 30.3054
1 17.0455 6.12548 30.8269
1 16.0741 6.66418 29.77
1 14.6728 6.83217 30.3736
1 13.5786 7.25892 29.3881
1 13.3368 6.23582 28.2694
1 12.0679 6.51703 27.4499
1 10.7436 6.19996 28.1625
1 10.5534 4.72753 28.5588
1 10.6483 3.75623 27.3731
1 10.0542 2.37635 27.6787
1 10.7962 1.64068 28.8019
1 10.3694 0.173594 28.9513
1 8.88035 15.1786 29.2626
2 5.02506 13.1667 23.1779
2 5.21508 13.0905 21.4378
2 6.63417 12.9724 22.4787
2 6.46575 0.0767627 21.449
2 4.84887 0.249371 22.088
2 7.4344 0.107254 23.7019
2 5.84774 15.1614 24.4364
2 6.80711 2.35327 22.7668
2 5.21188 2.1818 23.4639
2 7.84113 2.50152 24.9656
2 6.3763 1.96846 25.7569
2 6.61944 4.56926 24.1796
2 5.18716 3.99963 25.0116
2 7.8212 4.84737 26.2812
2 6.57966 3.98928 27.1644
2 6.16633 6.64419 25.702
2 4.92817 5.79432 26.5918
2 5.81806 7.63455 27.8894
2 7.45025 7.04443 27.767
2 5.42858 5.13718 28.9348
2 7.11515 5.33923 29.3111
2 6.45711 7.64256 30.3182
2 6.07708 6.20967 31.2253
2 4.23978 7.9482 31.0869
2 4.04447 7.58432 29.3941
2 3.80907 5.52906 31.6442
2 3.42882 5.21716 29.9725
2 1.48408 5.60113 31.518
2 1.96084 7.26174 31.7058
2 1.2747 5.98304 29.0004
2 1.63628 7.66782 29.285
2 19.2065 7.76635 30.8448
2 18.861 7.58656 29.144
2 18.9492 5.22744 31.073
2 18.3982 5.17953 29.423
2 16.6348 5.19955 31.2291
2 17.1047 6.81782 31.6665
2 16.0459 5.96641 28.9345
2 16.4244 7.61928 29.3786
2 14.3729 5.89778 30.8413
2 14.7206 7.56701 31.1778
2 13.8179 8.23291 28.9613
2 12.6613 7.39489 29.9599
2 14.1863 6.26372 27.5879
2 13.3135 5.22454 28.6727
2 12.1078 5.95343 26.5193
2 12.0672 7.56497 27.1496
2 10.6387 6.82536 29.0474
2 9.92369 6.49076 27.5051
2 9.56716 4.63226 29.0133
2 11.2648 4.45163 29.3368
2 10.1122 4.17488 26.5214
2 11.6857 3.64756 27.0566
2 10.0947 1.77489 26.7698
2 8.99849 2.48673 27.927
2 11.8664 1.66946 28.5947
2 10.6536 2.15614 29.752
2 10.9482 14.8958 29.7556
2 10.6178 14.7915 28.0487
2 8.5817 0.608276 30.1175
2 8.65078 14.1391 29.497
2 8.26055 0.288593 28.4141
1 13.5146 14.6579 10.9319
1 13.4433 0.40332 9.66788
1 14.772 0.90835 9.08797
1 15.7591 15.0102 8.6761
1 17.1058 0.18017 8.02723
1 17.2071 1.36045 6.95266
1 16.1894 1.47927 5.81738
1 16.7994 2.26524 4.63056
1 17.1429 3.7215 5.17396
1 17.7196 4.68198 4.16126
1 18.4913 5.78409 4.86155
1 17.5572 6.71765 5.56954
1 18.1416 8.12758 5.40702
1 17.5652 9.265 6.32045
1 18.1269 10.6773 6.15715
1 0.0566156 10.7688 6.43928
1 0.442054 12.2411 6.53633
1 1.93737 12.554 6.40431
1 2.21445 14.0472 6.25142
1 1.70958 14.947 7.36867
1 2.08392 14.4811 8.95498
1 1.70501 0.183334 10.1577
1 2.25636 1.63589 10.0227
1 1.90083 2.5232 11.2892
1 2.51934 2.19958 12.671
1 4.03773 2.41302 12.6293
1 4.8263 2.16498 13.915
1 4.57264 0.761304 14.4618
1 4.79804 14.8464 13.4326
1 4.88394 13.4847 14.2096
2 13.7136 0.01071 11.8366
2 12.5522 14.1612 11.0269
2 14.3016 13.9233 10.8552
2 12.8046 15.1643 8.92231
2 12.8155 1.22314 9.95403
2 15.2319 1.68446 9.69635
2 14.5126 1.3515 8.11051
2 15.9926 14.3519 9.51676
2 15.239 14.3128 8.01619
2 17.3105 14.544 7.25062
2 17.9252 0.24787 8.74171
2 17.1548 2.21853 7.72328
2 18.2276 1.31315 6.57926
2 15.3232 2.0676 6.15665
2 15.9063 0.47608 5.41128
2 17.6696 1.71142 4.26308
2 16.081 2.28 3.80914
2 17.9252 3.61767 5.91481
2 16.2749 4.11768 5.69653
2 18.4548 4.13812 3.59726
2 16.8875 5.05501 3.59162
2 19.0156 6.28337 4.02978
2 19.2217 5.41023 5.59462
2 16.5324 6.67274 5.21979
2 17.517 6.40597 6.609
2 18.0748 8.48078 4.34472
2 19.2032 8.01843 5.61853
2 16.4751 9.2084 6.34478
2 17.7851 8.91704 7.35752
2 17.6816 11.2874 6.97557
2 17.8457 11.1368 5.21028
2 0.26792 10.3501 7.41835
2 0.681371 10.2285 5.74646
2 0.1693 12.6608 7.58239
2 19.4146 12.7143 5.79
2 2.58974 12.2096 7.18124
2 2.29769 12.202 5.43205
2 1.83582 14.485 5.32752
2 3.28518 14.2604 6.28191
2 2.19396 0.736694 7.2206
2 0.648138 0.032144 7.37553
2 3.15275 14.2892 8.82444
2 1.67078 13.4807 9.1513
2 0.628494 0.342124 10.0945
2 1.93387 14.8785 11.1348
2 1.77986 2.08897 9.1713
2 3.3305 1.61457 9.83993
2 2.12511 3.59985 11.2434
2 0.82464 2.49842 11.4701
2 2.25414 1.1575 12.8321
2 1.99464 2.86904 13.3202
2 4.41073 1.74137 11.8363
2 4.26884 3.39482 12.2509
2 4.58862 2.90129 14.6802
2 5.87079 2.30263 13.6194
2 5.21784 0.603567 15.327
2 3.54796 0.801934 14.8316
2 5.73591 14.9499 12.888
2 4.02369 14.798 12.6562
2 5.84544 13.5071 14.7181
2 4.83469 12.6538 13.5533
2 4.08892 13.4482 14.9564
1 18.258 14.9744 12.293
1 18.4885 13.4961 12.8345
1 18.9308 12.6294 11.6565
1 0.233577 11.4435 12.0301
1 1.65199 11.8066 12.4987
1 2.65752 10.6464 12.215
1 3.20691 10.6406 10.8029
1 4.36053 9.63727 10.684
1 5.13545 9.62646 9.32413
1 6.47916 10.3949 9.40864
1 6.49291 11.7265 10.1843
1 7.87024 12.4376 10.1282
1 9.04976 11.4935 10.5253
1 8.94311 11.0015 11.9784
1 10.2975 10.7124 12.6627
1 10.179 10.0351 13.9802
1 9.7586 11.0792 15.0769
1 9.54933 10.4287 16.4492
1 10.84 10.283 17.2646
1 11.2882 11.611 17.8886
1 12.5301 11.4612 18.7693
1 12.9487 12.8051 19.3758
1 14.2796 12.7521 20.1358
1 14.2966 11.8048 21.3405
1 13.2161 12.1322 22.3778
1 13.5022 11.5085 23.7457
1 13.5244 9.97846 23.7131
1 13.5504 9.35817 25.1136
1 14.7976 9.69752 25.9433
1 16.1106 9.25759 25.2888
2 17.5848 14.899 11.4543
2 17.7578 0.4739 12.9642
2 19.2138 0.21685 12.012
2 19.2516 13.4516 13.6093
2 17.5922 13.0691 13.2857
2 19.5101 13.3113 11.059
2 18.0135 12.3205 11.1743
2 19.2927 10.7777 12.7073
2 0.34989 10.8473 11.1476
2 1.66784 12.1394 13.4907
2 1.96591 12.6888 11.9052
2 3.53282 10.9883 12.7552
2 2.35256 9.66348 12.6007
2 3.59222 11.6021 10.5146
2 2.42784 10.3971 10.0803
2 4.98297 9.7962 11.5981
2 3.92369 8.66213 10.8627
2 4.59909 10.1505 8.48711
2 5.32438 8.60757 8.98164
2 7.22829 9.78347 9.8675
2 6.78137 10.5561 8.34076
2 6.1635 11.5571 11.1861
2 5.73074 12.3001 9.6668
2 8.09036 12.8942 9.2007
2 7.83421 13.2386 10.8089
2 9.95004 12.1005 10.3784
2 9.15716 10.5552 9.87585
2 8.49069 11.8274 12.5415
2 8.28167 10.138 12.1219
2 10.866 11.6662 12.6131
2 10.8186 9.97685 12.0371
2 9.48382 9.22497 13.8294
2 11.1913 9.74523 14.2358
2 8.84274 11.6034 14.7974
2 10.5125 11.8621 15.14
2 8.83448 11.0193 17.0202
2 9.08646 9.45116 16.3137
2 11.6337 9.86122 16.6474
2 10.6619 9.56408 18.0644
2 11.4941 12.342 17.1077
2 10.4772 12.0194 18.4916
2 13.3484 11.0551 18.1765
2 12.326 10.7419 19.5618
2 13.05 13.5381 18.5747
2 12.1587 13.1838 20.0239
2 14.5247 13.7582 20.4752
2 15.0786 12.4675 19.4524
2 14.2072 10.77 21.01
2 15.2758 11.8857 21.8128
2 12.2383 11.8093 22.0201
2 13.1521 13.2128 22.5051
2 14.4492 11.8884 24.1278
2 12.7317 11.8385 24.4429
2 14.364 9.61369 23.1225
2 12.6267 9.6274 23.2059
2 12.6635 9.67643 25.6602
2 13.4628 8.27747 25.0182
2 14.7115 9.20223 26.9102
2 14.8364 10.7648 26.1608
2 16.089 8.1994 25.0286
2 16.949 9.41777 25.9673
2 16.317 9.8272 24.3838
1 0.497119 2.38912 16.2092
1 1.46321 2.98183 17.2374
1 1.72323 2.02434 18.4079
1 2.5589 2.64506 19.5333
1 3.95479 3.0934 19.0839
1 4.84654 3.46054 20.2748
1 6.26905 3.88042 19.8769
1 6.36061 5.13392 18.991
1 5.65054 6.37832 19.549
1 6.17525 6.86209 20.9084
1 7.53701 7.55793 20.8286
1 8.05663 7.93292 22.2202
1 9.11449 9.0426 22.2025
1 10.3164 8.7748 21.2889
1 11.1265 7.52667 21.6654
1 12.3663 7.39658 20.7759
1 13.196 6.13243 21.0262
1 13.9708 6.13971 22.3436
1 13.4386 5.11832 23.3529
1 14.1916 5.15366 24.6859
1 15.6934 4.89765 24.5426
1 16.3399 4.52112 25.8767
1 17.7677 3.98628 25.7254
1 18.7639 4.99977 25.1488
1 18.9615 6.22724 26.0488
1 0.773616 6.88058 25.9646
1 1.01525 7.79517 24.7536
1 1.18486 7.09324 23.3985
1 2.28969 6.02898 23.3396
1 3.67445 6.58504 23.6659
2 0.890302 1.46238 15.7907
2 19.1032 2.17382 16.6547
2 0.338987 3.08044 15.3813
2 2.39826 3.2248 16.7329
2 1.05443 3.91815 17.6158
2 2.21245 1.12007 18.0441
2 0.768264 1.70584 18.8292
2 2.02149 3.48848 19.9686
2 2.65736 1.9051 20.3283
2 3.85877 3.94938 18.4183
2 4.42761 2.29621 18.5103
2 4.37306 4.23841 20.8726
2 4.92196 2.59321 20.9299
2 6.75384 3.05451 19.3578
2 6.85425 4.03118 20.782
2 7.41149 5.36098 18.8103
2 5.95 4.90898 18.007
2 4.58265 6.1771 19.6347
2 5.72796 7.18978 18.8244
2 5.45471 7.57764 21.3051
2 6.20745 6.0429 21.6251
2 7.43786 8.45803 20.224
2 8.26653 6.92071 20.3313
2 7.22534 8.27971 22.8297
2 8.43953 7.04774 22.7253
2 9.46028 9.22585 23.2191
2 8.64042 9.97157 21.8872
2 9.98383 8.70347 20.2534
2 10.9712 9.64518 21.3316
2 10.5069 6.64019 21.5494
2 11.4192 7.57076 22.7137
2 12.0421 7.39521 19.7363
2 12.9979 8.27658 20.8841
2 13.9352 6.05644 20.2307
2 12.58 5.24049 20.9338
2 15.0094 5.90875 22.1063
2 13.9667 7.13796 22.7786
2 13.4953 4.11294 22.9315
2 12.3818 5.31434 23.5444
2 14.0402 6.11149 25.1802
2 13.7493 4.40062 25.3386
2 16.177 5.78519 24.1381
2 15.8586 4.10306 23.8194
2 16.3148 5.3738 26.5541
2 15.7464 3.74127 26.351
2 17.7552 3.09738 25.0929
2 18.1196 3.65203 26.7021
2 0.137553 4.48673 25.0311
2 18.4625 5.2965 24.1468
2 18.8292 5.90872 27.0816
2 18.1797 6.96245 25.8657
2 0.87859 7.51019 26.8482
2 1.5612 6.13557 26.0603
2 1.90237 8.39648 24.951
2 0.200715 8.51622 24.6813
2 0.240744 6.65219 23.0882
2 1.39632 7.8532 22.647
2 2.31246 5.61991 22.3299
2 2.06785 5.18705 23.9927
2 3.75868 6.85152 24.7175
2 3.88345 7.47355 23.0725
2 4.44682 5.84764 23.4485
1 9.75614 5.59194 32.1624
1 10.6202 4.41802 32.6282
1 12.0855 4.82359 32.8043
1 12.9405 3.75146 33.4948
1 13.2368 2.51187 32.6416
1 14.0109 2.84987 31.3633
1 14.8867 1.70371 30.851
1 14.1346 0.383688 30.6576
1 14.8871 14.6359 29.6949
1 14.2272 13.2631 29.5119
1 14.4828 12.29 30.6702
1 15.9294 11.7799 30.7197
1 16.1395 10.735 31.8213
1 17.5164 10.0673 31.7547
1 18.6736 10.9823 32.1783
1 0.450543 10.297 31.9804
1 1.64126 11.1794 32.3648
1 2.95604 10.5313 31.9226
1 4.19262 11.3999 32.1676
1 4.63394 11.4381 33.6355
1 6.07835 11.9279 33.7974
1 6.2642 13.4105 33.4543
1 7.72271 13.8524 33.6045
1 7.91165 0.15393 33.2475
1 9.38435 0.564038 33.1174
1 10.1953 0.471804 34.4163
1 9.70033 1.4218 35.5122
1 10.7173 1.55373 36.6515
1 10.1972 2.38081 37.8329
1 9.87491 3.83329 37.4685
2 9.75163 6.3945 32.9008
2 10.1257 6.00345 31.2244
2 8.7241 5.27677 32.0057
2 10.2248 4.04594 33.5725
2 10.5437 3.60302 31.909
2 12.1222 5.72523 33.4146
2 12.5082 5.10274 31.8412
2 13.8878 4.20007 33.7972
2 12.4546 3.44306 34.4209
2 12.3151 1.98511 32.3939
2 13.8271 1.8249 33.2486
2 13.3161 3.16689 30.5845
2 14.6661 3.6986 31.5542
2 15.7246 1.5458 31.531
2 15.3231 2.01611 29.9019
2 13.9944 15.0751 31.6234
2 13.1427 0.582371 30.258
2 15.9213 14.5282 30.0155
2 14.9299 15.1248 28.7223
2 13.1532 13.3974 29.3778
2 14.5885 12.8137 28.5859
2 13.8135 11.437 30.5517
2 14.2151 12.7514 31.6196
2 16.1871 11.3424 29.7549
2 16.6123 12.6118 30.8802
2 15.3819 9.95818 31.7156
2 15.9866 11.1815 32.804
2 17.5065 9.18988 32.4017
2 17.6818 9.69427 30.744
2 18.5531 11.2697 33.2235
2 18.6597 11.9013 31.5937
2 0.484144 9.3727 32.5576
2 0.546673 10.0162 30.9313
2 1.6433 11.3532 33.4413
2 1.54156 12.1533 31.8853
2 3.07783 9.56353 32.4084
2 2.89877 10.3266 30.853
2 4.01666 12.4088 31.7967
2 5.00676 10.9908 31.5691
2 3.95461 12.0552 34.2238
2 4.5737 10.4321 34.0513
2 6.73821 11.3196 33.1793
2 6.39349 11.7561 34.8267
2 5.94348 13.5992 32.4305
2 5.63029 14.0189 34.0998
2 8.34994 13.2406 32.9558
2 8.0538 13.6732 34.6274
2 7.42522 0.348639 32.2912
2 7.39935 0.782558 33.9745
2 9.43308 1.58484 32.7381
2 9.86361 15.1235 32.3563
2 10.2119 14.6235 34.7865
2 11.2301 0.719853 34.1808
2 8.75158 1.06318 35.9107
2 9.50992 2.40009 35.0748
2 10.9777 0.558303 37.0133
2 11.6421 1.99215 36.2761
2 10.95 2.37847 38.6216
2 9.31412 1.90285 38.2557
2 9.61969 4.40389 38.3621
2 9.0275 3.90196 36.7886
2 10.7286 4.31761 36.9949
1 5.77851 13.4247 37.4368
1 5.89145 14.9491 37.4144
1 6.43494 0.346903 38.7263
1 6.27648 1.86617 38.7686
1 6.76349 2.49094 40.0769
1 6.275 3.9352 40.1964
1 6.73002 4.61857 41.4861
1 5.98171 5.93984 41.6945
1 6.3861 6.69046 42.9647
1 6.17906 5.86551 44.2399
1 5.82419 6.73508 45.4506
1 4.34564 7.15263 45.4924
1 3.41235 5.9985 45.8878
1 1.96785 6.43924 46.1472
1 1.18484 6.77719 44.8685
1 19.2782 7.07204 45.1353
1 18.4507 5.81773 45.4496
1 17.0471 6.13013 45.9772
1 16.0741 6.66791 44.9216
1 14.6718 6.82805 45.5247
1 13.5781 7.25428 44.5387
1 13.3466 6.2359 43.4129
1 12.0792 6.5105 42.5902
1 10.7538 6.2004 43.3054
1 10.5635 4.73214 43.7164
1 10.6549 3.7518 42.5384
1 10.059 2.37531 42.8544
1 10.8025 1.64541 43.9802
1 10.3795 0.177564 44.1325
1 8.89046 15.1788 44.4422
2 5.11773 13.0892 38.2356
2 5.36181 13.0593 36.4993
2 6.75159 12.9551 37.5793
2 6.52805 0.0781763 36.5835
2 4.90474 0.190805 37.2183
2 7.48407 0.0744049 38.8453
2 5.8945 15.0852 39.5661
2 6.8106 2.31693 37.9322
2 5.22188 2.10721 38.6357
2 7.85173 2.45464 40.1282
2 6.38742 1.91231 40.92
2 6.6188 4.51309 39.3378
2 5.18521 3.93628 40.1607
2 7.80421 4.79869 41.4514
2 6.55063 3.94755 42.325
2 6.15112 6.59048 40.8357
2 4.90844 5.75063 41.7263
2 5.78837 7.59862 43.0167
2 7.42403 7.0174 42.8989
2 5.40594 5.11597 44.0859
2 7.0956 5.31328 44.4497
2 6.45785 7.62246 45.4511
2 6.06963 6.19642 46.366
2 4.24515 7.94848 46.2292
2 4.04058 7.58112 44.5384
2 3.79334 5.54125 46.8012
2 3.4182 5.21485 45.1311
2 1.47318 5.62542 46.6712
2 1.95329 7.28788 46.8309
2 1.27085 5.96734 44.1438
2 1.63179 7.65599 44.4036
2 19.201 7.77607 45.961
2 18.8553 7.57117 44.263
2 18.9512 5.23405 46.2193
2 18.3905 5.17176 44.5734
2 16.6363 5.20616 46.3838
2 17.1115 6.82465 46.8147
2 16.0499 5.97282 44.0836
2 16.4208 7.62581 44.5339
2 14.3748 5.89052 45.9881
2 14.7158 7.55973 46.332
2 13.8121 8.23253 44.1188
2 12.659 7.38114 45.1098
2 14.1958 6.27316 42.7314
2 13.3291 5.22244 43.8112
2 12.1242 5.93882 41.6642
2 12.0789 7.55607 42.2816
2 10.6476 6.83422 44.1842
2 9.9339 6.48491 42.6452
2 9.57808 4.64169 44.1739
2 11.2765 4.46225 44.4952
2 10.118 4.16534 41.6846
2 11.6916 3.63928 42.2209
2 10.0966 1.76813 41.9493
2 9.00394 2.48862 43.1045
2 11.8727 1.67615 43.7732
2 10.6582 2.16364 44.9285
2 10.9586 14.9029 44.9383
2 10.6307 14.7946 43.231
2 8.58917 0.607767 45.2967
2 8.66354 14.1386 44.6765
2 8.27056 0.286735 43.593
1 13.2191 15.0397 25.7811
1 13.6137 1.04307 24.8874
1 15.0938 1.0468 24.4864
1 15.4854 15.0329 23.604
1 16.9379 15.0767 23.106
1 17.3019 1.10688 22.2252
1 16.3462 1.31745 21.0441
1 16.9469 2.16031 19.9134
1 17.4118 3.55008 20.3539
1 17.6774 4.44121 19.1387
1 18.3965 5.74992 19.4785
1 17.6619 6.61457 20.5114
1 18.2652 8.01882 20.6005
1 17.6613 8.84001 21.747
1 17.9933 10.3361 21.6717
1 19.4921 10.666 21.6977
1 0.14616 12.1811 21.762
1 1.62851 12.5686 21.6845
1 1.85315 14.0851 21.5865
1 1.41247 14.8977 22.8167
1 2.20979 14.5922 24.0976
1 1.78832 0.265676 25.3047
1 2.21524 1.73818 25.2131
1 1.77875 2.57924 26.4261
1 2.40852 2.1799 27.7696
1 3.92471 2.40021 27.8034
1 4.56436 2.07142 29.1575
1 4.40182 0.611408 29.6009
1 4.92018 14.7753 28.5688
1 4.94783 13.3499 29.1162
2 13.8628 14.9778 26.6567
2 12.192 15.1536 26.133
2 13.2778 14.0924 25.2473
2 12.9884 1.05162 23.9939
2 13.3945 1.96894 25.4196
2 15.7238 1.08234 25.3757
2 15.2802 1.96812 23.9428
2 15.3596 14.1102 24.1702
2 14.8026 14.9581 22.7583
2 17.133 14.1629 22.542
2 17.6148 15.0457 23.9598
2 17.3564 2.01228 22.8268
2 18.3077 0.943308 21.8339
2 15.4221 1.78016 21.3902
2 16.071 0.348993 20.6235
2 17.7789 1.62222 19.4581
2 16.1922 2.26575 19.1317
2 18.3194 3.46233 20.9493
2 16.6536 4.00649 20.9908
2 18.2906 3.89431 18.4216
2 16.7395 4.6604 18.6272
2 18.5276 6.31742 18.5544