2305
 Atoms. Timestep: 300
1 10.4821 6.54397 1.59334
1 10.7762 5.23766 2.27948
1 12.2668 4.85369 2.23197
1 12.6121 3.56986 3.01991
1 12.9287 2.36086 2.1625
1 14.1859 2.50786 1.30851
1 14.9604 1.22592 1.08696
1 14.0583 0.20193 0.44538
1 14.87 14.5808 -0.576934
1 14.2496 13.2411 -0.991785
1 14.4648 12.1463 0.05343
1 15.9132 11.6494 0.14492
1 16.1775 11.2253 1.60214
1 17.5473 10.5802 1.81979
1 18.6718 11.6376 1.77964
1 0.470154 11.018 1.90695
1 1.74204 11.8016 2.15934
1 2.90549 11.0564 1.46554
1 4.24243 11.7418 1.74541
1 4.908 11.4088 3.05219
1 6.32782 11.9622 3.1714
1 6.44955 13.4876 2.88328
1 7.81982 13.9627 3.37347
1 7.81317 0.27516 3.38259
1 9.18427 0.94093 3.27454
1 10.1575 0.7574 4.41556
1 9.79803 1.70871 5.59685
1 10.9357 2.03922 6.54242
1 10.4138 2.6505 7.9079
1 9.86214 4.01818 7.64884
2 11.0191 7.47931 1.92539
2 10.7477 6.3541 0.56722
2 9.45694 6.94295 1.6065
2 10.362 5.23255 3.26684
2 10.2939 4.37397 1.75423
2 12.8339 5.68177 2.68945
2 12.5878 4.6195 1.21557
2 13.547 3.85101 3.48257
2 11.8012 3.39173 3.70309
2 12.0614 1.98251 1.62276
2 13.1524 1.5908 2.90099
2 13.9167 2.83136 0.29284
2 14.8787 3.23043 1.7278
2 15.4089 0.744086 1.96955
2 15.7441 1.56523 0.39088
2 13.6152 14.7312 1.19465
2 13.2308 0.677474 -0.0814145
2 15.8709 14.4236 -0.182349
2 14.9948 0.0268198 -1.46336
2 13.1831 13.3738 -1.17938
2 14.6868 12.9117 -1.93534
2 13.8069 11.3028 -0.158639
2 14.1722 12.5201 1.04704
2 16.0633 10.8104 -0.534781
2 16.6208 12.4183 -0.150259
2 15.3594 10.5548 1.8017
2 16.0713 12.0874 2.29398
2 17.5365 10.0926 2.82135
2 17.7349 9.70421 1.22277
2 18.5561 12.3074 2.67832
2 18.6052 12.3718 0.99765
2 0.415966 10.1964 2.64594
2 0.621563 10.3537 1.05001
2 1.91851 11.7906 3.22339
2 1.65934 12.8106 1.7155
2 2.94237 9.99411 1.82266
2 2.77433 11.0534 0.32921
2 3.99302 12.7367 1.82829
2 4.90107 11.5278 0.89355
2 4.25901 11.8404 3.79108
2 4.91745 10.3724 3.2875
2 7.02504 11.549 2.46141
2 6.68589 11.7262 4.18904
2 6.33954 13.8236 1.80956
2 5.6933 14.0691 3.42153
2 8.56604 13.602 2.66408
2 8.08048 13.5028 4.32401
2 7.23864 0.564706 2.5003
2 7.29943 0.645176 4.27916
2 9.06337 2.01637 3.03468
2 9.66071 0.565686 2.3675
2 10.1559 14.8978 4.80107
2 11.1506 0.917626 3.98967
2 8.88897 1.31741 6.0326
2 9.50873 2.68711 5.18114
2 11.3755 1.03888 6.7837
2 11.735 2.72336 6.26595
2 11.2198 2.6872 8.63224
2 9.56583 2.07332 8.2289
2 9.76339 4.56738 8.60263
2 8.95422 4.07475 7.00564
2 10.4775 4.48164 6.82582
1 5.89073 13.2186 6.86656
1 6.22273 14.7096 6.7316
1 6.19682 0.22165 8.27314
1 6.14627 1.70672 8.19058
1 6.56636 2.38742 9.50275
1 6.14395 3.90157 9.41344
1 6.69231 4.63266 10.6047
1 5.82795 5.86815 10.9445
1 6.20818 6.65452 12.2325
1 5.89003 5.87857 13.5192
1 5.83356 6.71742 14.8609
1 4.48419 7.36687 15.2322
1 3.48307 6.2893 15.6981
1 2.0513 6.77588 15.9299
1 1.27922 7.03184 14.6277
1 19.3746 7.45153 14.8717
1 18.7107 5.97145 14.9451
1 17.2627 5.97934 15.4419
1 16.2644 6.43614 14.3819
1 14.8227 6.36532 14.8768
1 13.7501 6.95927 13.9512
1 13.1885 5.85727 13.0516
1 11.9441 6.21459 12.2447
1 10.5831 5.98236 12.9369
1 10.2402 4.55561 13.3278
1 10.2612 3.47089 12.2356
1 9.57267 2.19436 12.6802
1 10.3881 1.37425 13.6989
1 10.0859 14.9876 13.6341
1 8.67362 14.6803 14.1367
2 4.97579 12.9546 7.41294
2 5.7976 12.7605 5.91908
2 6.64005 12.6565 7.44929
2 7.22771 14.7738 6.31524
2 5.5781 0.01949 5.97703
2 7.05038 15.1033 8.89513
2 5.33098 15.0448 8.83908
2 6.73262 2.0304 7.31402
2 5.12088 2.00962 7.97057
2 7.64778 2.43148 9.63959
2 6.15379 1.86956 10.3818
2 6.49088 4.32964 8.47758
2 5.05269 3.87038 9.41154
2 7.70018 5.01958 10.4339
2 6.72786 3.9143 11.4208
2 5.9897 6.49949 10.1382
2 4.78654 5.53217 10.878
2 5.82674 7.74361 12.2543
2 7.27323 6.89729 12.1806
2 4.98566 5.3218 13.2648
2 6.70643 5.17158 13.599
2 6.5589 7.54945 14.9073
2 6.12057 6.0531 15.6753
2 4.67404 7.99346 16.1041
2 4.12494 8.10434 14.4896
2 3.85128 5.90212 16.6478
2 3.47238 5.41894 15.043
2 1.54881 6.01539 16.522
2 2.05257 7.67159 16.5472
2 1.37912 6.13022 13.9528
2 1.61864 8.09745 14.2564
2 19.2343 8.02747 15.7832
2 18.9901 7.99235 13.9991
2 19.2514 5.3886 15.6859
2 18.8166 5.41602 14.0605
2 17.0032 4.96691 15.7515
2 17.1847 6.60341 16.3328
2 16.369 5.75948 13.5241
2 16.4791 7.48809 14.1046
2 14.5746 5.33966 15.145
2 14.7797 6.92465 15.812
2 14.019 8.00006 13.5372
2 12.9796 7.37607 14.6297
2 13.9767 5.43863 12.4265
2 12.9576 4.95704 13.6676
2 11.963 5.80269 11.2438
2 11.9857 7.36022 11.8918
2 10.3655 6.71894 13.7089
2 9.95894 6.18135 12.0206
2 9.23613 4.47011 13.7445
2 10.881 4.06209 14.0776
2 9.72422 3.85279 11.3585
2 11.2709 3.31042 11.8539
2 9.41697 1.61187 11.7712
2 8.58104 2.41885 13.077
2 11.4552 1.53327 13.537
2 10.1439 1.62727 14.6965
2 10.8148 14.3382 14.1259
2 10.1855 14.6099 12.6846
2 8.5212 14.9346 15.1852
2 8.4572 13.6322 13.9782
2 7.93114 0.00938 13.5224
1 13.4617 14.8619 -4.3988
1 13.9133 0.952685 -5.12739
1 15.4156 0.976567 -5.43006
1 15.8684 14.9886 -6.31883
1 17.3332 15.1049 -6.76408
1 17.6418 1.14841 -7.64794
1 16.6589 1.30997 -8.81569
1 17.1566 2.24837 -9.91888
1 17.4779 3.66542 -9.43135
1 17.7279 4.61608 -10.6065
1 18.4375 5.91174 -10.2061
1 17.6707 6.7357 -9.16638
1 18.2911 8.12491 -8.9975
1 17.6399 8.94341 -7.87572
1 18.065 10.4181 -7.88046
1 19.5726 10.6324 -7.69863
1 0.362825 12.1184 -7.70768
1 1.87865 12.3379 -7.77244
1 2.27763 13.794 -8.04917
1 1.75879 14.8122 -7.02849
1 2.34922 14.6274 -5.62833
1 1.70638 0.368885 -4.58746
1 1.92007 1.86437 -4.85641
1 1.39748 2.76364 -3.72411
1 2.02935 2.5061 -2.34744
1 3.54903 2.72793 -2.32947
1 4.20927 2.33587 -1.00247
1 4.15945 0.835033 -0.685533
1 4.78252 15.1225 -1.77042
1 4.96514 13.6775 -1.30823
2 14.1396 14.6233 -3.58303
2 12.4657 14.9933 -3.97693
2 13.4253 14.0046 -5.06962
2 13.3428 1.06744 -6.04946
2 13.6735 1.8196 -4.5118
2 15.9826 0.968109 -4.49962
2 15.64 1.92692 -5.91394
2 15.7569 14.0519 -5.77236
2 15.2133 14.9 -7.18426
2 17.6045 14.1994 -7.30734
2 17.98 15.1259 -5.88591
2 17.6571 2.05498 -7.04234
2 18.6524 1.03735 -8.04263
2 15.6977 1.66995 -8.44839
2 16.4719 0.334478 -9.26472
2 18.0369 1.81604 -10.3958
2 16.387 2.30196 -10.6898
2 18.3594 3.63909 -8.79139
2 16.6542 4.04227 -8.82469
2 18.3432 4.11078 -11.3516
2 16.7837 4.84871 -11.0993
2 18.576 6.51092 -11.1064
2 19.4374 5.68446 -9.83534
2 16.6302 6.83641 -9.47587
2 17.6693 6.21581 -8.20839
2 18.2038 8.66861 -9.93809
2 19.3556 8.00948 -8.79704
2 16.5563 8.90428 -7.98744
2 17.8625 8.49403 -6.90838
2 17.5321 10.9409 -7.08578
2 17.7428 10.8785 -8.81435
2 0.327784 10.1772 -6.76546
2 0.536799 10.1375 -8.50357
2 19.527 12.5924 -6.81741
2 19.4738 12.5967 -8.56936
2 2.34743 11.9799 -6.85891
2 2.29262 11.7266 -8.57478
2 1.91403 14.0786 -9.03688
2 3.36478 13.8622 -8.10255
2 2.01074 0.629841 -7.39648
2 0.673704 14.7772 -6.98036
2 3.4278 14.7831 -5.64857
2 2.19663 13.6021 -5.295
2 0.638879 0.169266 -4.52727
2 2.11955 0.0874025 -3.62193
2 1.38831 2.14192 -5.76669
2 2.97057 2.06897 -5.06104
2 1.553 3.80684 -4.00179
2 0.317616 2.63294 -3.64361
2 1.77565 1.50425 -2.00666
2 1.56687 3.17802 -1.62451
2 4.03672 2.18578 -3.13587
2 3.75001 3.78181 -2.52344
2 3.75388 2.89506 -0.184387
2 5.25366 2.64817 -1.03203
2 4.71476 0.685224 0.23555
2 3.13792 0.517244 -0.478344
2 5.75057 0.348686 -2.06757
2 4.15927 15.1211 -2.66272
2 5.66367 13.6137 -0.475852
2 5.3576 13.0613 -2.11685
2 4.01675 13.2465 -0.989026
1 17.8754 14.5708 -2.47119
1 18.9002 13.4647 -2.21804
1 19.1375 12.5965 -3.45969
1 0.533032 11.4378 -3.22376
1 1.85016 11.8691 -2.56538
1 2.96893 10.8399 -2.74692
1 3.64703 10.9701 -4.11284
1 4.67632 9.8659 -4.36451
1 5.3886 10.0282 -5.7126
1 6.82641 10.5491 -5.59622
1 6.93144 11.9285 -4.9336
1 8.30541 12.5886 -5.11963
1 9.49547 11.7603 -4.61389
1 9.38569 11.3853 -3.1333
1 10.6765 10.7653 -2.58433
1 10.4883 10.0915 -1.22011
1 10.0272 11.06 -0.127264
1 9.81006 10.3892 1.21372
1 11.1109 10.1944 1.99446
1 11.6117 11.4935 2.61372
1 12.7076 11.4603 3.69215
1 13.0331 12.8385 4.29855
1 14.3084 12.8122 5.15114
1 14.2875 11.7828 6.25339
1 13.1953 12.0205 7.31467
1 13.4419 11.3864 8.81526
1 13.7806 9.87736 9.00476
1 13.8418 9.65875 10.5329
1 15.0902 10.144 11.2593
1 16.4437 9.55116 10.874
2 16.9174 14.1571 -2.78662
2 17.7101 -0.0245143 -1.56367
2 18.2168 0.0829069 -3.24441
2 0.2514 13.9353 -1.89588
2 18.5641 12.836 -1.39436
2 -0.0680826 13.2106 -4.27732
2 18.1889 12.1868 -3.80744
2 19.633 10.6765 -2.60771
2 0.727779 10.968 -4.18697
2 1.67434 12.0207 -1.50041
2 2.18076 12.8303 -2.9579
2 3.72106 10.9856 -1.97205
2 2.57438 9.8339 -2.60668
2 4.12245 11.9481 -4.1868
2 2.8944 10.9321 -4.89771
2 5.40373 9.82029 -3.55472
2 4.15738 8.9075 -4.36119
2 4.8059 10.667 -6.37753
2 5.42513 9.05317 -6.20059
2 7.42739 9.8221 -5.05
2 7.25021 10.6015 -6.59956
2 6.69074 11.8616 -3.87359
2 6.18026 12.5881 -5.36723
2 8.45558 12.8094 -6.17702
2 8.3023 13.5556 -4.61453
2 10.4032 12.3444 -4.76616
2 9.61456 10.8621 -5.21906
2 9.1348 12.2791 -2.56359
2 8.56523 10.682 -2.99597
2 11.4544 11.5258 -2.51746
2 11.0409 10.0169 -3.28873
2 9.76944 9.27745 -1.31675
2 11.4316 9.63404 -0.922401
2 9.09342 11.54 -0.414272
2 10.7613 11.839 0.03379
2 9.16259 11.0489 1.80322
2 9.27369 9.44993 1.09843
2 11.8582 9.56051 1.49354
2 10.8034 9.52787 2.78175
2 12.0153 12.0512 1.79236
2 10.7151 11.9564 2.9872
2 13.5698 11.0987 3.11687
2 12.4242 10.827 4.5142
2 13.2034 13.602 3.58502
2 12.1767 13.1881 4.86922
2 14.6155 13.7955 5.52908
2 15.1038 12.2827 4.60205
2 14.2461 10.7545 5.92616
2 15.2818 11.9104 6.66928
2 12.23 11.7317 6.89193
2 13.1359 13.1052 7.69371
2 14.2495 12.0285 9.15179
2 12.5368 11.4847 9.40847
2 14.7033 9.5711 8.50844
2 12.9673 9.2917 8.58072
2 12.9625 10.0574 11.0371
2 13.758 8.62955 10.7195
2 14.955 9.93883 12.3424
2 15.1947 11.1507 11.1715
2 16.4502 8.47498 10.6419
2 17.1031 9.87571 11.7059
2 16.8149 10.071 9.99222
1 0.207084 1.68132 1.60665
1 1.23464 2.54469 2.32549
1 1.37995 2.23377 3.831
1 2.2595 3.22577 4.6234
1 3.65637 3.473 4.03687
1 4.7672 3.28411 5.06793
1 6.19324 3.60063 4.58993
1 6.31166 5.00142 3.83036
1 5.72343 6.22569 4.6003
1 6.31921 6.55504 6.00613
1 7.62169 7.38211 5.85027
1 8.29741 7.76934 7.13677
1 9.10381 9.08156 7.10675
1 10.3187 9.02189 6.173
1 11.2126 7.81707 6.48924
1 12.3969 7.72558 5.50517
1 13.0827 6.33975 5.47293
1 13.8994 6.10296 6.74551
1 13.399 5.14103 7.94824
1 14.2144 5.20564 9.24868
1 15.5899 4.58944 9.03664
1 16.2608 4.28263 10.3313
1 17.6568 3.69948 10.2233
1 18.7971 4.52714 9.62992
1 19.1486 5.58997 10.6814
1 0.917718 6.30248 10.713
1 0.965363 7.54517 9.61755
1 0.923606 6.94011 8.14156
1 2.0696 6.04901 7.62035
1 3.41129 6.72951 7.94728
2 0.386875 0.58412 1.67328
2 18.7583 1.89589 1.89767
2 0.237045 1.99194 0.50648
2 2.21858 2.48311 1.88087
2 0.928876 3.58387 2.21958
2 1.81136 1.24827 3.9366
2 0.404232 2.22056 4.32166
2 1.76018 4.18355 4.82369
2 2.38159 2.6594 5.56041
2 3.66618 4.50721 3.59584
2 3.84912 2.68692 3.27927
2 4.52434 3.92376 5.89334
2 4.7394 2.27869 5.3961
2 6.61035 2.80001 4.00647
2 6.8669 3.70709 5.42797
2 7.35672 5.25478 3.63466
2 5.86915 4.94447 2.82404
2 4.65099 6.09325 4.71392
2 5.79272 7.1784 3.94721
2 5.66383 7.34959 6.40797
2 6.4149 5.69214 6.61374
2 7.48444 8.30698 5.24247
2 8.22738 6.59014 5.326
2 7.61099 7.77711 8.02553
2 8.78104 6.83076 7.62065
2 9.31439 9.33943 8.23658
2 8.52974 9.92736 6.66144
2 9.98063 8.96206 5.14229
2 10.9292 9.90267 6.28626
2 10.8348 6.72569 6.12158
2 11.37 7.66241 7.69924
2 11.9542 7.92534 4.55851
2 13.1494 8.48619 5.66331
2 13.8638 6.37554 4.73257
2 12.4683 5.44134 5.26747
2 14.9247 5.90293 6.47096
2 14.0523 7.00906 7.2208
2 13.4401 4.23645 7.26673
2 12.3475 5.30682 8.1679
2 14.2944 6.27887 9.55866
2 13.6132 4.69741 9.9709
2 16.2666 5.24 8.52285
2 15.4764 3.72469 8.46565
2 16.2919 5.18168 10.9166
2 15.6318 3.58256 10.8774
2 17.586 2.77438 9.66923
2 17.8893 3.28571 11.2619
2 19.5466 3.70995 9.50434
2 18.5341 4.86674 8.63292
2 19.1712 4.9908 11.6162
2 18.3355 6.29362 10.8561
2 1.03784 6.71439 11.6407
2 1.82167 5.72482 10.6446
2 1.84629 8.18331 9.7541
2 0.153778 8.28532 9.71857
2 19.562 6.48775 7.81944
2 0.942667 7.93974 7.35537
2 1.99376 6.06908 6.49152
2 2.02755 4.97321 8.0179
2 3.70303 6.80721 9.0042
2 3.45377 7.7539 7.20479
2 4.02921 6.02725 7.30532
1 9.98378 5.25224 16.8153
1 10.8477 4.08972 17.3047
1 12.224 4.55679 17.784
1 12.9903 3.47914 18.5663
1 13.3869 2.24962 17.7389
1 14.2654 2.61002 16.5363
1 15.072 1.42943 15.9909
1 14.2129 0.228758 15.5791
1 14.9461 14.5632 14.5244
1 14.2563 13.2509 14.1357
1 14.439 12.1836 15.2072
1 15.8743 11.6399 15.3316
1 16.1774 11.2694 16.7861
1 17.4941 10.5112 16.9626
1 18.738 11.405 16.9757
1 0.431806 10.5539 16.962
1 1.71591 11.3241 17.2692
1 2.93259 10.4173 17.0537
1 4.27445 11.1147 17.2691
1 4.63243 11.3143 18.7459
1 6.05974 11.841 18.9285
1 6.21148 13.3083 18.51
1 7.64594 13.8131 18.6722
1 7.76884 0.119279 18.3106
1 9.22066 0.585058 18.1528
1 10.0644 0.520124 19.4336
1 9.59791 1.48063 20.5335
1 10.6089 1.54924 21.6851
1 10.127 2.40358 22.862
1 9.92485 3.87983 22.5055
2 9.76543 5.9507 17.6231
2 10.4843 5.80503 16.0217
2 9.0339 4.88773 16.424
2 10.3269 3.59251 18.1203
2 10.9597 3.35717 16.5058
2 12.0852 5.41666 18.4388
2 12.8133 4.92168 16.9432
2 13.8921 3.92322 18.9916
2 12.3891 3.15817 19.4182
2 12.4986 1.71258 17.4065
2 13.9302 1.56548 18.3913
2 13.6466 3.02668 15.7409
2 14.9651 3.39607 16.8229
2 15.8192 1.11473 16.7205
2 15.6305 1.78705 15.1257
2 13.9701 14.8137 16.4606
2 13.271 0.592736 15.1668
2 15.9827 14.4468 14.826
2 15.0076 0.034596 13.6465
2 13.1783 13.4005 14.0918
2 14.5783 12.8171 13.1725
2 13.7319 11.4056 14.9543
2 14.1084 12.5735 16.1685
2 16.009 10.6924 14.7434
2 16.5347 12.4877 15.0429
2 15.3804 10.6197 17.1462
2 16.1668 12.158 17.4173
2 17.4461 9.98117 17.913
2 17.5797 9.74308 16.1947
2 18.7183 12.0335 17.866
2 18.7382 12.0711 16.1126
2 0.330211 9.74 17.6808
2 0.527972 10.0988 15.9771
2 1.68888 11.6927 18.2956
2 1.7881 12.1939 16.6152
2 2.86957 9.53906 17.6956
2 2.90896 10.05 16.026
2 4.27155 12.066 16.7433
2 5.04846 10.5056 16.802
2 3.92219 11.9878 19.2263
2 4.55046 10.3572 19.263
2 6.75457 11.2151 18.3681
2 6.34212 11.7356 19.9759
2 5.91388 13.4345 17.4695
2 5.54127 13.927 19.1059
2 8.30429 13.2286 18.0306
2 7.97643 13.6551 19.6989
2 7.25926 0.295101 17.3626
2 7.24662 0.725731 19.05
2 9.21965 1.60397 17.7689
2 9.70628 -0.0149883 17.3821
2 10.1017 14.677 19.8154
2 11.09 0.774068 19.1672
2 8.63047 1.1598 20.9183
2 9.45604 2.47232 20.1055
2 10.8035 0.539786 22.0495
2 11.5636 1.92997 21.3234
2 10.8556 2.33671 23.6705
2 9.20046 1.99 23.2567
2 9.70028 4.46218 23.401
2 9.09399 4.0208 21.8151
2 10.8213 4.2992 22.0479
1 5.63219 13.4876 22.3858
1 5.77312 15.0099 22.3342
1 6.33158 0.424858 23.6322
1 6.19159 1.94784 23.6582
1 6.69079 2.56831 24.9652
1 6.29003 4.04072 25.0655
1 6.75575 4.6931 26.3677
1 6.05593 6.03793 26.598
1 6.48283 6.74421 27.8866
1 6.24718 5.89377 29.14
1 5.8842 6.73523 30.3684
1 4.40763 7.16229 30.4053
1 3.45928 6.00074 30.7404
1 2.01103 6.43126 31.0024
1 1.22738 6.79173 29.7299
1 19.3175 7.07068 29.9987
1 18.4985 5.80639 30.2919
1 17.0907 6.10166 30.8197
1 16.1275 6.6725 29.7706
1 14.7177 6.82989 30.3606
1 13.6402 7.26744 29.3616
1 13.4229 6.25762 28.2244
1 12.1745 6.54839 27.3782
1 10.8323 6.23403 28.0593
1 10.62 4.75842 28.4318
1 10.74 3.79521 27.241
1 10.1076 2.42347 27.5105
1 10.7922 1.66234 28.6529
1 10.2971 0.218264 28.8149
1 8.80164 0.120025 29.1278
2 4.98697 13.1766 23.2072
2 5.1769 13.1187 21.4677
2 6.60038 12.9993 22.5054
2 6.41081 0.110324 21.4944
2 4.79282 0.265002 22.134
2 7.37829 0.141077 23.7489
2 5.79276 0.00463098 24.4821
2 6.73346 2.38419 22.818
2 5.14042 2.2054 23.5201
2 7.77317 2.47245 25.0395
2 6.27194 2.01908 25.8082
2 6.693 4.59483 24.2158
2 5.20365 4.10932 25.0028
2 7.83679 4.83256 26.3467
2 6.54511 4.01592 27.1944
2 6.25355 6.6996 25.7534
2 4.97615 5.88868 26.6235
2 5.91868 7.6717 27.9621
2 7.53164 7.03541 27.8291
2 5.46854 5.15699 28.9573
2 7.15475 5.32632 29.3472
2 6.52564 7.61631 30.4016
2 6.11451 6.168 31.2708
2 4.30568 7.92695 31.1742
2 4.1195 7.63306 29.4657
2 3.828 5.50332 31.6384
2 3.47026 5.25035 29.9512
2 1.52075 5.60126 31.5043
2 1.98697 7.26269 31.7066
2 1.31988 5.99689 28.9892
2 1.67095 7.6819 29.2848
2 19.229 7.75998 30.8351
2 18.8928 7.58039 29.1333
2 18.9999 5.21409 31.0546
2 18.4462 5.17301 29.4064
2 16.6747 5.16778 31.1976
2 17.1508 6.77298 31.6762
2 16.1094 5.99826 28.9154
2 16.4829 7.63751 29.4084
2 14.4068 5.89234 30.8154
2 14.7555 7.5573 31.1718
2 13.8893 8.24662 28.9542
2 12.7116 7.39804 29.9161
2 14.2832 6.29614 27.5575
2 13.3926 5.24071 28.6135
2 12.237 5.98937 26.4457
2 12.1859 7.59796 27.0835
2 10.7155 6.8477 28.9518
2 10.0289 6.5421 27.3896
2 9.62006 4.66709 28.8571
2 11.3092 4.47164 29.225
2 10.2426 4.23227 26.375
2 11.7868 3.67035 26.9626
2 10.1673 1.82859 26.5982
2 9.04683 2.55572 27.7235
2 11.8665 1.64165 28.4693
2 10.6522 2.19122 29.5944
2 10.8504 14.9263 29.6287
2 10.5245 14.8112 27.9224
2 8.52882 0.758771 29.9676
2 8.52938 14.2735 29.3898
2 8.19297 0.410155 28.2724
1 13.473 14.6579 10.9319
1 13.4036 0.40332 9.66788
1 14.7327 0.90835 9.08797
1 15.7202 15.0102 8.6761
1 17.0666 0.18017 8.02723
1 17.1689 1.36045 6.95266
1 16.1522 1.47927 5.81738
1 16.763 2.26524 4.63056
1 17.1098 3.7215 5.17396
1 17.688 4.68198 4.16126
1 18.461 5.78409 4.86155
1 17.5282 6.71765 5.56954
1 18.1144 8.12758 5.40702
1 17.5411 9.265 6.32045
1 18.1079 10.6773 6.15715
1 0.0390342 10.7688 6.43928
1 0.430194 12.2411 6.53633
1 1.92693 12.554 6.40431
1 2.20973 14.0472 6.25142
1 1.70812 14.947 7.36867
1 2.0858 14.4811 8.95498
1 1.71062 0.183334 10.1577
1 2.26549 1.63589 10.0227
1 1.91633 2.5232 11.2892
1 2.53985 2.19958 12.671
1 4.05939 2.41302 12.6293
1 4.85102 2.16498 13.915
1 4.59956 0.761304 14.4618
1 4.82346 14.8464 13.4326
1 4.90956 13.4847 14.2096
2 13.6688 0.01071 11.8366
2 12.5107 14.1612 11.0269
2 14.2608 13.9233 10.8552
2 12.765 15.1643 8.92231
2 12.7761 1.22314 9.95403
2 15.1927 1.68446 9.69635
2 14.4737 1.3515 8.11051
2 15.9536 14.3519 9.51676
2 15.201 14.3128 8.01619
2 17.2696 14.544 7.25062
2 17.8867 0.24787 8.74171
2 17.1164 2.21853 7.72328
2 18.1887 1.31315 6.57926
2 15.2861 2.0676 6.15665
2 15.8691 0.47608 5.41128
2 17.6325 1.71142 4.26308
2 16.0441 2.28 3.80914
2 17.8919 3.61767 5.91481
2 16.2417 4.11768 5.69653
2 18.4232 4.13812 3.59726
2 16.8562 5.05501 3.59162
2 18.9864 6.28337 4.02978
2 19.1914 5.41023 5.59462
2 16.5034 6.67274 5.21979
2 17.4888 6.40597 6.609
2 18.0457 8.48078 4.34472
2 19.1754 8.01843 5.61853
2 16.4504 9.2084 6.34478
2 17.7593 8.91704 7.35752
2 17.6646 11.2874 6.97557
2 17.8259 11.1368 5.21028
2 0.249687 10.3501 7.41835
2 0.663953 10.2285 5.74646
2 0.157548 12.6608 7.58239
2 19.4019 12.7143 5.79
2 2.57762 12.2096 7.18124
2 2.28536 12.202 5.43205
2 1.83222 14.485 5.32752
2 3.2797 14.2604 6.28191
2 2.1918 0.736694 7.2206
2 0.645802 0.032144 7.37553
2 3.15378 14.2892 8.82444
2 1.67159 13.4807 9.1513
2 0.633751 0.342124 10.0945
2 1.93661 14.8785 11.1348
2 1.78893 2.08897 9.1713
2 3.33897 1.61457 9.83993
2 2.13957 3.59985 11.2434
2 0.840628 2.49842 11.4701
2 2.27507 1.1575 12.8321
2 2.01722 2.86904 13.3202
2 4.43298 1.74137 11.8363
2 4.28864 3.39482 12.2509
2 4.61459 2.90129 14.6802
2 5.8958 2.30263 13.6194
2 5.24668 0.60394 15.3264
2 3.57509 0.801934 14.8316
2 5.7603 14.9499 12.888
2 4.0501 14.798 12.6562
2 5.87184 13.5071 14.7181
2 4.85859 12.6538 13.5533
2 4.11397 13.4482 14.9564
1 18.2551 14.9744 12.293
1 18.4848 13.4961 12.8345
1 18.9297 12.6294 11.6565
1 0.232634 11.4435 12.0301
1 1.65103 11.8066 12.4987
1 2.65659 10.6464 12.215
1 3.20785 10.6406 10.8029
1 4.3619 9.63727 10.684
1 5.13681 9.62646 9.32413
1 6.47985 10.3949 9.40864
1 6.49159 11.7265 10.1843
1 7.86843 12.4376 10.1282
1 9.04948 11.4935 10.5253
1 8.95055 11.0015 11.9784
1 10.309 10.7124 12.6627
1 10.2008 10.0351 13.9802
1 9.78798 11.0792 15.0769
1 9.60473 10.4464 16.4594
1 10.9108 10.3396 17.2567
1 11.3386 11.6868 17.8561
1 12.5722 11.5765 18.7554
1 12.9581 12.9416 19.3363
1 14.2733 12.9384 20.1256
1 14.3048 11.9983 21.3363
1 13.1973 12.2956 22.3554
1 13.4288 11.6208 23.7106
1 13.4478 10.0935 23.6197
1 13.3899 9.41043 24.9887
1 14.6194 9.65554 25.876
1 15.9241 9.12447 25.2743
2 17.5813 14.899 11.4543
2 17.7549 0.4739 12.9642
2 19.2109 0.21685 12.012
2 19.2485 13.4516 13.6093
2 17.588 13.0691 13.2857
2 19.507 13.3113 11.059
2 18.0139 12.3205 11.1743
2 19.2916 10.7777 12.7073
2 0.348694 10.8473 11.1476
2 1.66669 12.1394 13.4907
2 1.96498 12.6888 11.9052
2 3.53143 10.9883 12.7552
2 2.35051 9.66348 12.6007
2 3.59218 11.6021 10.5146
2 2.42893 10.3971 10.0803
2 4.98426 9.7962 11.5981
2 3.92498 8.66213 10.8627
2 4.60098 10.1505 8.48711
2 5.32633 8.60757 8.98164
2 7.22826 9.78347 9.8675
2 6.78176 10.5561 8.34076
2 6.16082 11.5571 11.1861
2 5.72761 12.3001 9.6668
2 8.08533 12.8942 9.2007
2 7.8288 13.2386 10.8089
2 9.95023 12.1005 10.3784
2 9.15784 10.5552 9.87585
2 8.49852 11.8274 12.5415
2 8.28933 10.138 12.1219
2 10.8771 11.6662 12.6131
2 10.8289 9.97685 12.0371
2 9.50448 9.22497 13.8294
2 11.2136 9.74523 14.2358
2 8.87139 11.6034 14.7974
2 10.5416 11.8629 15.1228
2 8.88586 11.0329 17.0303
2 9.15796 9.45959 16.3438
2 11.7059 9.9244 16.635
2 10.759 9.62883 18.0691
2 11.54 12.4059 17.0624
2 10.5174 12.0954 18.4451
2 13.405 11.1688 18.1849
2 12.3667 10.8739 19.5619
2 13.0609 13.6573 18.5197
2 12.1471 13.3209 19.958
2 14.4678 13.9546 20.4671
2 15.0963 12.6865 19.4576
2 14.2609 10.9607 21.0066
2 15.2717 12.1191 21.8245
2 12.2279 11.9934 21.9601
2 13.1379 13.3715 22.5171
2 14.3581 11.9823 24.1503
2 12.6278 11.9263 24.3852
2 14.3153 9.74828 23.0589
2 12.5756 9.77521 23.0532
2 12.4959 9.74406 25.5156
2 13.2587 8.33955 24.8383
2 14.4556 9.16052 26.8328
2 14.725 10.7155 26.1062
2 15.8393 8.069 25.0196
2 16.7445 9.22931 25.9847
2 16.2052 9.67128 24.3755
1 0.628039 2.40323 16.1106
1 1.58847 2.9629 17.1617
1 1.89912 1.93911 18.2603
1 2.73493 2.50777 19.4122
1 4.11406 3.01618 18.9755
1 5.00525 3.34723 20.1787
1 6.40545 3.8449 19.7898
1 6.43422 5.15945 18.991
1 5.71893 6.3439 19.6626
1 6.30953 6.76327 21.0163
1 7.65135 7.49399 20.897
1 8.25063 7.81711 22.2704
1 9.23296 8.99502 22.2428
1 10.3845 8.84922 21.2421
1 11.3024 7.65645 21.5271
1 12.5528 7.69599 20.6436
1 13.4535 6.46425 20.7886
1 14.1951 6.3723 22.1249
1 13.561 5.36293 23.0873
1 14.257 5.30393 24.4482
1 15.7522 4.98974 24.3643
1 16.3135 4.56974 25.726
1 17.7247 3.98494 25.6348
1 18.7674 4.96064 25.0799
1 18.9399 6.20306 25.9636
1 0.739242 6.87769 25.8628
1 0.936946 7.81495 24.6605
1 1.11889 7.14029 23.292
1 2.23851 6.09053 23.2233
1 3.60661 6.63045 23.645
2 1.03807 1.50968 15.6405
2 19.2432 2.14101 16.5509
2 0.447244 3.13241 15.322
2 2.50647 3.27004 16.661
2 1.15521 3.85846 17.6066
2 2.4102 1.07814 17.8288
2 0.963177 1.56216 18.6753
2 2.18621 3.31086 19.9055
2 2.86544 1.72263 20.1584
2 3.9895 3.90332 18.3565
2 4.6064 2.26305 18.3595
2 4.51043 4.07034 20.8264
2 5.12313 2.44607 20.78
2 6.90732 3.07611 19.2024
2 7.00453 3.95127 20.6928
2 7.47232 5.42127 18.7873
2 5.9883 4.99326 18.0106
2 4.6628 6.10765 19.7929
2 5.73779 7.19952 18.9865
2 5.6003 7.4416 21.4907
2 6.3937 5.9081 21.6859
2 7.49508 8.41716 20.3386
2 8.36401 6.89705 20.3287
2 7.44779 8.07322 22.961
2 8.72618 6.92753 22.6847
2 9.63781 9.1484 23.2437
2 8.68138 9.9057 22.0073
2 9.99875 8.78641 20.2258
2 10.9719 9.76688 21.2776
2 10.7631 6.72768 21.3464
2 11.5906 7.65764 22.5776
2 12.2383 7.76634 19.6012
2 13.1299 8.59879 20.8445
2 14.1987 6.50594 19.9934
2 12.8838 5.55292 20.6178
2 15.2135 6.05438 21.9108
2 14.2702 7.35555 22.5873
2 13.5684 4.36974 22.6371
2 12.5138 5.61551 23.2499
2 14.1194 6.24318 24.9799
2 13.7572 4.53965 25.0435
2 16.2897 5.86408 23.9984
2 15.9169 4.19561 23.6372
2 16.2934 5.41283 26.4163
2 15.666 3.80725 26.1602
2 17.7067 3.08791 25.0152
2 18.0327 3.65017 26.6258
2 0.136403 4.42938 25.0142
2 18.5187 5.23923 24.0581
2 18.8188 5.89439 27.0014
2 18.1467 6.9253 25.7727
2 0.848001 7.49679 26.7539
2 1.53911 6.14278 25.9349
2 1.80849 8.43978 24.8556
2 0.0977708 8.50903 24.6044
2 0.181315 6.69251 22.9694
2 1.32696 7.91828 22.5573
2 2.30699 5.73137 22.1957
2 1.98741 5.21834 23.8245
2 3.64173 6.83752 24.7135
2 3.84553 7.55006 23.1126
2 4.38959 5.90403 23.4269
1 9.56869 5.22235 31.9307
1 10.5684 4.1475 32.3602
1 11.8969 4.73605 32.8426
1 12.7984 3.70927 33.5422
1 13.1977 2.50051 32.6854
1 13.8964 2.89352 31.3788
1 14.7588 1.77685 30.7823
1 14.0289 0.438515 30.626
1 14.7949 14.6711 29.6916
1 14.1465 13.2872 29.546
1 14.4235 12.3449 30.7258
1 15.864 11.815 30.756
1 16.0759 10.7734 31.8618
1 17.4437 10.086 31.7876
1 18.6191 10.9858 32.1932
1 0.378003 10.2618 32.0159
1 1.59299 11.1149 32.3852
1 2.887 10.4222 31.9472
1 4.14869 11.2537 32.187
1 4.56707 11.3158 33.6608
1 6.00641 11.8131 33.8361
1 6.18688 13.2915 33.4716
1 7.64487 13.7395 33.6006
1 7.82384 0.0354799 33.2194
1 9.29322 0.450406 33.0858
1 10.1007 0.392736 34.3895
1 9.61576 1.37106 35.4657
1 10.6264 1.48762 36.6141
1 10.1599 2.41286 37.7443
1 10.0477 3.88174 37.3231
2 9.26505 5.83514 32.7794
2 9.9952 5.88137 31.1758
2 8.67074 4.7644 31.5135
2 10.1203 3.55742 33.1565
2 10.7444 3.46822 31.5274
2 11.6876 5.53975 33.5491
2 12.4221 5.20036 32.0088
2 13.703 4.21123 33.8868
2 12.2982 3.35095 34.4427
2 12.325 1.88299 32.4701
2 13.8698 1.87941 33.279
2 13.157 3.22256 30.6473
2 14.548 3.74607 31.564
2 15.6456 1.63 31.3988
2 15.1174 2.11112 29.8088
2 13.902 15.1547 31.6053
2 13.0311 0.608988 30.2268
2 15.8256 14.5753 30.0269
2 14.8439 15.1316 28.7051
2 13.0693 13.4085 29.4215
2 14.5 12.8199 28.6259
2 13.739 11.4984 30.6512
2 14.1879 12.8402 31.6665
2 16.0974 11.3625 29.7917
2 16.5615 12.6388 30.8976
2 15.3087 10.0036 31.7685
2 15.9389 11.2249 32.8451
2 17.4268 9.21216 32.4403
2 17.5947 9.70295 30.7781
2 18.5005 11.3046 33.2295
2 18.6277 11.8882 31.5825
2 0.384307 9.3461 32.6088
2 0.470023 9.96204 30.9716
2 1.60266 11.3039 33.459
2 1.51938 12.0833 31.8902
2 2.98183 9.45602 32.4417
2 2.8243 10.2098 30.8792
2 4.00869 12.2572 31.7877
2 4.95921 10.8044 31.6114
2 3.87785 11.9409 34.2287
2 4.50218 10.3157 34.0897
2 6.67793 11.1994 33.2355
2 6.30734 11.6602 34.8726
2 5.85848 13.4684 32.448
2 5.5586 13.9076 34.1158
2 8.26774 13.12 32.9547
2 7.9861 13.5761 34.6227
2 7.33947 0.20945 32.2572
2 7.30628 0.672306 33.9361
2 9.33447 1.45839 32.6768
2 9.777 14.9945 32.3403
2 10.1148 14.5544 34.7856
2 11.1357 0.63108 34.1471
2 8.65515 1.04138 35.8597
2 9.4528 2.34896 35.0167
2 10.8054 0.494833 37.0288
2 11.5877 1.83291 36.2331
2 10.87 2.34161 38.5692
2 9.20539 2.0642 38.1372
2 9.8035 4.50703 38.1824
2 9.26756 4.0365 36.58
2 10.9877 4.2418 36.9047
1 5.73696 13.4063 37.4664
1 5.86874 14.9299 37.4629
1 6.41345 0.314658 38.7806
1 6.23303 1.83062 38.8509
1 6.74909 2.4474 40.1517
1 6.32213 3.91229 40.2584
1 6.76863 4.58003 41.559
1 6.06011 5.92538 41.7567
1 6.47084 6.66433 43.0319
1 6.22974 5.84208 44.3029
1 5.87568 6.71284 45.5136
1 4.4012 7.14781 45.5477
1 3.44941 5.99755 45.9107
1 2.00451 6.439 46.1728
1 1.21837 6.78924 44.8989
1 19.3094 7.07148 45.1694
1 18.4891 5.80918 45.4669
1 17.0831 6.10751 45.998
1 16.1203 6.68736 44.9534
1 14.7113 6.84518 45.5453
1 13.6332 7.2855 44.5479
1 13.4141 6.27715 43.4098
1 12.1618 6.56475 42.5687
1 10.8237 6.2427 43.2545
1 10.6202 4.7659 43.6278
1 10.7509 3.80256 42.4385
1 10.1204 2.4288 42.703
1 10.8028 1.66698 43.8459
1 10.3119 0.220863 44.003
1 8.81474 0.116107 44.3057
2 5.06641 13.0707 38.2578
2 5.31696 13.06 36.5229
2 6.70385 12.9208 37.6052
2 6.50877 0.0606225 36.6352
2 4.88649 0.182388 37.2682
2 7.46826 0.056759 38.8853
2 5.88815 15.0311 39.6186
2 6.74068 2.29814 38.0069
2 5.1717 2.06131 38.7446
2 7.83547 2.36935 40.1988
2 6.35484 1.88754 41.0008
2 6.71413 4.4745 39.4085
2 5.23451 3.96201 40.1932
2 7.8494 4.72381 41.5509
2 6.54815 3.91408 42.3928
2 6.26146 6.56978 40.8995
2 4.98066 5.77081 41.7747
2 5.89886 7.58881 43.0796
2 7.51805 6.9619 42.9767
2 5.4446 5.10894 44.1354
2 7.13245 5.27112 44.521
2 6.52123 7.59145 45.5242
2 6.1074 6.16516 46.4279
2 4.30521 7.92934 46.3005
2 4.11156 7.59994 44.5993
2 3.82121 5.51532 46.8157
2 3.45234 5.2322 45.1361
2 1.51114 5.61808 46.6864
2 1.98752 7.27886 46.8671
2 1.30849 5.9883 44.1646
2 1.66164 7.67539 44.4457
2 19.2237 7.76286 46.0044
2 18.8842 7.57977 44.3034
2 18.992 5.2168 46.2286
2 18.4331 5.17473 44.5824
2 16.6642 5.17313 46.3714
2 17.147 6.77411 46.858
2 16.0999 6.01821 44.0945
2 16.4779 7.65357 44.5965
2 14.4 5.90713 45.9988
2 14.7505 7.57076 46.358
2 13.8826 8.26488 44.141
2 12.7052 7.41627 45.1035
2 14.2715 6.31985 42.7395
2 13.3886 5.25942 43.7971
2 12.2234 6.00697 41.6354
2 12.1681 7.61478 42.2748
2 10.7064 6.85565 44.1474
2 10.0165 6.54637 42.5874
2 9.61941 4.66819 44.05
2 11.3087 4.48421 44.4236
2 10.2584 4.23837 41.5692
2 11.7999 3.68091 42.1672
2 10.1854 1.83566 41.7899
2 9.05838 2.55742 42.912
2 11.8777 1.65048 43.6654
2 10.6579 2.19351 44.7877
2 10.8615 14.93 44.8199
2 10.5473 14.8158 43.1113
2 8.53317 0.753217 45.1438
2 8.54522 14.2682 44.5651
2 8.21101 0.403948 43.446
1 13.1652 15.1076 25.7212
1 13.6069 1.1247 24.8696
1 15.0979 1.11271 24.515
1 15.4994 15.1164 23.614
1 16.9591 15.1771 23.1412
1 17.3145 1.20842 22.2563
1 16.3961 1.36355 21.0369
1 16.9969 2.21555 19.9119
1 17.3839 3.63657 20.3365
1 17.7503 4.50105 19.1229
1 18.469 5.80477 19.489
1 17.6683 6.67976 20.4581
1 18.2341 8.09674 20.5692
1 17.5386 8.91232 21.6662
1 17.8648 10.4097 21.6113
1 19.3599 10.724 21.7436
1 0.0408806 12.2293 21.8548
1 1.53575 12.5671 21.8293
1 1.81548 14.073 21.721
1 1.39865 14.9074 22.9425
1 2.21563 14.6149 24.2109
1 1.79335 0.288348 25.4167
1 2.19587 1.76732 25.3034
1 1.74734 2.61964 26.5026
1 2.3799 2.24715 27.8501
1 3.89497 2.47811 27.8809
1 4.54319 2.15369 29.2332
1 4.39359 0.692128 29.6805
1 4.8545 14.8549 28.623
1 4.90076 13.4253 29.1609
2 13.7542 15.0356 26.6342
2 12.1191 0.0358727 26.0091
2 13.2609 14.1685 25.1802
2 13.0111 1.1689 23.9579
2 13.3897 2.04151 25.4178
2 15.7016 1.1131 25.4217
2 15.3144 2.04721 24.0045
2 15.3684 14.1836 24.161
2 14.829 15.0555 22.7581
2 17.1804 14.2622 22.59
2 17.6192 15.166 24.009
2 17.3088 2.12552 22.8447
2 18.3413 1.07842 21.9125
2 15.4363 1.78054 21.3436
2 16.1873 0.377398 20.6251
2 17.8701 1.71017 19.4987
2 16.2677 2.27018 19.1033
2 18.2298 3.59547 21.0222
2 16.5553 4.09268 20.8782
2 18.3982 3.93079 18.4566
2 16.8512 4.72633 18.5486
2 18.6571 6.36077 18.569
2 19.4477 5.58165 19.9161
2 16.6348 6.7411 20.119