ITEM: TIMESTEP
225
ITEM: NUMBER OF ATOMS
5
ITEM: BOX BOUNDS pp pp ff
0.0000000000000000e+00 1.9576986000000002e+01
0.0000000000000000e+00 1.5176166000000000e+01
-1.5176166000000000e+01 9.1056995999999998e+01
ITEM: ATOMS id type x y z vx vy vz fx fy fz
2301 1 16.0965 7.50587 19.1163 -0.00104667 -7.23828e-05 0.00371415 -6558.06 10079.2 -14524.2
2302 2 15.091 7.10445 19.2589 -0.00593894 -0.00270844 -0.00350698 882.129 611.443 -787.564
2303 2 16.5111 7.12271 18.1814 0.00904114 0.0194971 -0.00616434 -12.4503 9.53909 -6.40072
2304 2 16.7317 7.1982 19.9498 0.00254998 0.00340265 0.0137389 1.5392e+08 3.85889e+08 -2.02758e+08
2305 2 16.0494 8.59631 19.0744 0.0135816 0.0150335 -0.0110792 -8.21038 0.816986 -3.73332
ITEM: TIMESTEP
226
ITEM: NUMBER OF ATOMS
5
ITEM: BOX BOUNDS pp pp ff
0.0000000000000000e+00 1.9576986000000002e+01
0.0000000000000000e+00 1.5176166000000000e+01
-1.5176166000000000e+01 9.1056995999999998e+01
ITEM: ATOMS id type x y z vx vy vz fx fy fz
2301 1 16.0965 7.50587 19.1163 -0.00104667 -7.23828e-05 0.00371415 -5288.18 8500.91 -12011.2
2302 2 15.091 7.10445 19.2589 -0.00593894 -0.00270844 -0.00350698 884 611.285 -785.957
2303 2 16.5111 7.12271 18.1814 0.00904114 0.0194971 -0.00616434 -12.489 9.56569 -5.63993
2304 2 16.7417 7.2232 19.9367 0.00254998 0.00340265 0.0137389 3.68485e+07 9.27238e+07 -4.87487e+07
2305 2 16.0494 8.59631 19.0744 0.0135816 0.0150335 -0.0110792 -8.86148 0.437815 -4.55826
ITEM: TIMESTEP
227
ITEM: NUMBER OF ATOMS
5
ITEM: BOX BOUNDS pp pp ff
0.0000000000000000e+00 1.9576986000000002e+01
0.0000000000000000e+00 1.5176166000000000e+01
-1.5176166000000000e+01 9.1056995999999998e+01
ITEM: ATOMS id type x y z vx vy vz fx fy fz
2301 1 16.0965 7.50587 19.1163 -0.00104667 -7.23828e-05 0.00371415 -4275.25 7164.74 -9938.92
2302 2 15.091 7.10445 19.2589 -0.00593894 -0.00270844 -0.00350698 885.969 611.069 -784.208
2303 2 16.5111 7.12271 18.1814 0.00904114 0.0194971 -0.00616434 -12.5553 9.58968 -4.97373
2304 2 16.7516 7.2482 19.9236 0.00254998 0.00340265 0.0137389 1.01057e+07 2.57136e+07 -1.35427e+07
2305 2 16.0494 8.59631 19.0744 0.0135816 0.0150335 -0.0110792 -9.58034 0.103815 -5.40997
ITEM: TIMESTEP
228
ITEM: NUMBER OF ATOMS
5
ITEM: BOX BOUNDS pp pp ff
0.0000000000000000e+00 1.9576986000000002e+01
0.0000000000000000e+00 1.5176166000000000e+01
-1.5176166000000000e+01 9.1056995999999998e+01
ITEM: ATOMS id type x y z vx vy vz fx fy fz
2301 1 16.0965 7.50588 19.1163 -0.00104667 -7.23828e-05 0.00371415 -3469.19 6037.76 -8234.17
2302 2 15.091 7.10445 19.2589 -0.00593894 -0.00270844 -0.00350698 888.004 610.789 -782.318
2303 2 16.5111 7.12271 18.1814 0.00904114 0.0194971 -0.00616434 -12.6462 9.61044 -4.39417
2304 2 16.7615 7.2732 19.9104 0.00254998 0.00340265 0.0137389 3.07148e+06 8.05015e+06 -4.25944e+06
2305 2 16.0494 8.59631 19.0744 0.0135816 0.0150335 -0.0110792 -10.3633 -0.189617 -6.28146
ITEM: TIMESTEP
229
ITEM: NUMBER OF ATOMS
5
ITEM: BOX BOUNDS pp pp ff
0.0000000000000000e+00 1.9576986000000002e+01
0.0000000000000000e+00 1.5176166000000000e+01
-1.5176166000000000e+01 9.1056995999999998e+01
ITEM: ATOMS id type x y z vx vy vz fx fy fz
2301 1 16.0964 7.50591 19.1163 -0.00104667 -7.23828e-05 0.00371415 -2320.68 4295.37 -5686.35
2302 2 15.091 7.10445 19.2589 -0.00593894 -0.00270844 -0.00350698 892.127 610.023 -778.123
2303 2 16.5111 7.12271 18.1814 0.00904114 0.0194971 -0.00616434 -12.8904 9.63904 -3.4631
2304 2 16.7805 7.3232 19.8839 0.00254998 0.00340265 0.0137389 327369 1.08378e+06 -591863
2305 2 16.0494 8.59631 19.0744 0.0135816 0.0150335 -0.0110792 -12.1077 -0.670535 -8.05968
ITEM: TIMESTEP
230
ITEM: NUMBER OF ATOMS
5
ITEM: BOX BOUNDS pp pp ff
0.0000000000000000e+00 1.9576986000000002e+01
0.0000000000000000e+00 1.5176166000000000e+01
-1.5176166000000000e+01 9.1056995999999998e+01
ITEM: ATOMS id type x y z vx vy vz fx fy fz
2301 1 16.0963 7.50611 19.116 -0.00104667 -7.23828e-05 0.00371415 -1608.9 3096.37 -4007.25
2302 2 15.091 7.10448 19.2589 -0.00593894 -0.00270844 -0.00350698 895.258 608.538 -772.928
2303 2 16.5111 7.12271 18.1814 0.00904114 0.0194971 -0.00616434 -13.0986 9.61608 -2.76071
2304 2 16.7956 7.3732 19.8566 0.00254998 0.00340265 0.0137389 19255.3 225976 -134061
2305 2 16.0494 8.59631 19.0744 0.0135816 0.0150335 -0.0110792 -14.0492 -0.949949 -9.86109
ITEM: TIMESTEP
231
ITEM: NUMBER OF ATOMS
5
ITEM: BOX BOUNDS pp pp ff
0.0000000000000000e+00 1.9576986000000002e+01
0.0000000000000000e+00 1.5176166000000000e+01
-1.5176166000000000e+01 9.1056995999999998e+01
ITEM: ATOMS id type x y z vx vy vz fx fy fz
2301 1 16.096 7.5068 19.1151 -0.00104667 -7.23828e-05 0.00371415 -1176.1 2306.69 -2944.05
2302 2 15.0912 7.10462 19.2587 -0.00593894 -0.00270844 -0.00350698 893.79 604.45 -764.563
2303 2 16.5111 7.12272 18.1814 0.00904114 0.0194971 -0.00616434 -12.9992 9.49102 -2.18118
2304 2 16.7999 7.4232 19.827 0.00254998 0.00340265 0.0137389 -11228.1 69813.5 -45361.6
2305 2 16.0494 8.59631 19.0744 0.0135816 0.0150335 -0.0110792 -16.1238 -0.831844 -11.7191
ITEM: TIMESTEP
232
ITEM: NUMBER OF ATOMS
5
ITEM: BOX BOUNDS pp pp ff
0.0000000000000000e+00 1.9576986000000002e+01
0.0000000000000000e+00 1.5176166000000000e+01
-1.5176166000000000e+01 9.1056995999999998e+01
ITEM: ATOMS id type x y z vx vy vz fx fy fz
2301 1 16.0943 7.5101 19.1109 -0.00104667 -7.23828e-05 0.00371415 -694.909 1352.71 -1722.41
2302 2 15.0925 7.10548 19.2576 -0.00593894 -0.00270844 -0.00350698 866.97 582.217 -730.142
2303 2 16.5111 7.12273 18.1814 0.00904114 0.0194971 -0.00616434 -12.0101 9.09518 -1.62966
2304 2 16.7838 7.5232 19.762 0.00254998 0.00340265 0.0137389 -4590.89 10186.3 -7584.48
2305 2 16.0494 8.59631 19.0743 0.0135816 0.0150335 -0.0110792 -20.7964 0.891152 -15.8568
ITEM: TIMESTEP
233
ITEM: NUMBER OF ATOMS
5
ITEM: BOX BOUNDS pp pp ff
0.0000000000000000e+00 1.9576986000000002e+01
0.0000000000000000e+00 1.5176166000000000e+01
-1.5176166000000000e+01 9.1056995999999998e+01
ITEM: ATOMS id type x y z vx vy vz fx fy fz
2301 1 16.0875 7.52338 19.094 -0.00104667 -7.23828e-05 0.00371415 -404.54 686.182 -932.884
2302 2 15.101 7.1112 19.2505 -0.00593894 -0.00270844 -0.00350698 681.996 459.31 -570.016
2303 2 16.5109 7.12282 18.1813 0.00904114 0.0194971 -0.00616434 -9.28626 8.47536 -4.57801
2304 2 16.7388 7.6232 19.6875 0.00254998 0.00340265 0.0137389 -1183.02 1493.49 -1397.74
2305 2 16.0492 8.59632 19.0742 0.0135816 0.0150335 -0.0110792 -26.5577 10.0123 -21.7535
ITEM: TIMESTEP
234
ITEM: NUMBER OF ATOMS
5
ITEM: BOX BOUNDS pp pp ff
0.0000000000000000e+00 1.9576986000000002e+01
0.0000000000000000e+00 1.5176166000000000e+01
-1.5176166000000000e+01 9.1056995999999998e+01
ITEM: ATOMS id type x y z vx vy vz fx fy fz
2301 1 16.0604 7.56933 19.0315 -0.00104667 -7.23828e-05 0.00371415 -176.936 156.57 -333.257
2302 2 15.1467 7.14195 19.2123 -0.00593894 -0.00270844 -0.00350698 169.5 127.103 -156.395
2303 2 16.5103 7.12339 18.181 0.00904114 0.0194971 -0.00616434 -1.21882 6.6394 -17.7253
2304 2 16.6595 7.7232 19.5939 0.00254998 0.00340265 0.0137389 -291.814 136.071 -172.308
2305 2 16.0474 8.59699 19.0727 0.0135816 0.0150335 -0.0110792 -32.6283 42.3289 -30.566
ITEM: TIMESTEP
235
ITEM: NUMBER OF ATOMS
5
ITEM: BOX BOUNDS pp pp ff
0.0000000000000000e+00 1.9576986000000002e+01
0.0000000000000000e+00 1.5176166000000000e+01
-1.5176166000000000e+01 9.1056995999999998e+01
ITEM: ATOMS id type x y z vx vy vz fx fy fz
2301 1 16.0073 7.61631 18.9315 -0.00104667 -7.23828e-05 0.00371415 -75.304 48.5673 -169.89
2302 2 15.1976 7.18009 19.1654 -0.00593894 -0.00270844 -0.00350698 -24.3205 2.13275 -18.0507
2303 2 16.51 7.12538 18.1757 0.00904114 0.0194971 -0.00616434 11.1976 0.169557 -32.5819
2304 2 16.572 7.76403 19.5422 0.00254998 0.00340265 0.0137389 -71.5455 42.7465 5.96564
2305 2 16.0376 8.60969 19.0636 0.0135816 0.0150335 -0.0110792 -29.2812 64.4057 -32.6367
ITEM: TIMESTEP
236
ITEM: NUMBER OF ATOMS
5
ITEM: BOX BOUNDS pp pp ff
0.0000000000000000e+00 1.9576986000000002e+01
0.0000000000000000e+00 1.5176166000000000e+01
-1.5176166000000000e+01 9.1056995999999998e+01
ITEM: ATOMS id type x y z vx vy vz fx fy fz
2301 1 15.963 7.6449 18.8315 -0.00104667 -7.23828e-05 0.00371415 -47.8454 49.9517 -83.9374
2302 2 15.1832 7.18135 19.1547 -0.00593894 -0.00270844 -0.00350698 -15.7037 0.794944 -21.3325
2303 2 16.5165 7.12548 18.1565 0.00904114 0.0194971 -0.00616434 21.033 -6.29527 -36.5292
2304 2 16.5299 7.78919 19.5458 0.00254998 0.00340265 0.0137389 -89.2417 39.6138 -24.5635
2305 2 16.0204 8.6476 19.0443 0.0135816 0.0150335 -0.0110792 -21.2992 51.5576 -33.9501
ITEM: TIMESTEP
237
ITEM: NUMBER OF ATOMS
5
ITEM: BOX BOUNDS pp pp ff
0.0000000000000000e+00 1.9576986000000002e+01
0.0000000000000000e+00 1.5176166000000000e+01
-1.5176166000000000e+01 9.1056995999999998e+01
ITEM: ATOMS id type x y z vx vy vz fx fy fz
2301 1 15.9094 7.70087 18.7375 -0.00104667 -7.23828e-05 0.00371415 -29.0535 24.67 -66.9981
2302 2 15.1656 7.18224 19.1308 -0.00593894 -0.00270844 -0.00350698 -18.5867 -3.63615 -14.8693
2303 2 16.5401 7.11842 18.1156 0.00904114 0.0194971 -0.00616434 8.66263 10.1814 -10.7321
2304 2 16.4299 7.83358 19.5182 0.00254998 0.00340265 0.0137389 -15.6528 4.50628 22.9985
2305 2 15.9965 8.70538 19.0063 0.0135816 0.0150335 -0.0110792 -15.0852 41.9832 -33.677
ITEM: TIMESTEP
238
ITEM: NUMBER OF ATOMS
5
ITEM: BOX BOUNDS pp pp ff
0.0000000000000000e+00 1.9576986000000002e+01
0.0000000000000000e+00 1.5176166000000000e+01
-1.5176166000000000e+01 9.1056995999999998e+01
ITEM: ATOMS id type x y z vx vy vz fx fy fz
2301 1 15.866 7.73769 18.6375 -0.00104667 -7.23828e-05 0.00371415 -2.44321 33.3067 27.4299
2302 2 15.1379 7.17681 19.1086 -0.00593894 -0.00270844 -0.00350698 -1.619 8.22527 -28.2143
2303 2 16.553 7.13362 18.0996 0.00904114 0.0194971 -0.00616434 9.15757 9.71869 -9.15712
2304 2 16.4065 7.84031 19.5526 0.00254998 0.00340265 0.0137389 -68.1987 12.4247 -52.5554
2305 2 15.974 8.76804 18.956 0.0135816 0.0150335 -0.0110792 -11.5686 15.2805 -35.9475
ITEM: TIMESTEP
239
ITEM: NUMBER OF ATOMS
5
ITEM: BOX BOUNDS pp pp ff
0.0000000000000000e+00 1.9576986000000002e+01
0.0000000000000000e+00 1.5176166000000000e+01
-1.5176166000000000e+01 9.1056995999999998e+01
ITEM: ATOMS id type x y z vx vy vz fx fy fz
2301 1 15.822 7.81069 18.5737 -0.00104667 -7.23828e-05 0.00371415 15.6313 -17.9777 22.479
2302 2 15.1097 7.18103 19.0554 -0.00593894 -0.00270844 -0.00350698 -4.52054 16.6591 -27.0816
2303 2 16.5758 7.15916 18.0739 0.00904114 0.0194971 -0.00616434 -13.7767 32.6739 6.45133
2304 2 16.3065 7.86087 19.5253 0.00254998 0.00340265 0.0137389 -25.5918 4.61682 -24.2107
2305 2 15.9394 8.84505 18.8672 0.0135816 0.0150335 -0.0110792 -10.7296 13.1127 -28.2057
ITEM: TIMESTEP
240
ITEM: NUMBER OF ATOMS
5
ITEM: BOX BOUNDS pp pp ff
0.0000000000000000e+00 1.9576986000000002e+01
0.0000000000000000e+00 1.5176166000000000e+01
-1.5176166000000000e+01 9.1056995999999998e+01
ITEM: ATOMS id type x y z vx vy vz fx fy fz
2301 1 15.8427 7.78694 18.6034 -0.00104667 -7.23828e-05 0.00371415 -14.1914 37.8545 -17.2142
2302 2 15.1036 7.20315 19.0193 -0.00593894 -0.00270844 -0.00350698 -24.9419 -2.15586 -13.4545
2303 2 16.5575 7.20257 18.0824 0.00904114 0.0194971 -0.00616434 11.2629 7.64298 -10.1741
2304 2 16.2724 7.86703 19.4931 0.00254998 0.00340265 0.0137389 9.38935 -1.02694 31.4222
2305 2 15.9251 8.86258 18.8297 0.0135816 0.0150335 -0.0110792 -14.2702 -3.10625 -31.7472
ITEM: TIMESTEP
241
ITEM: NUMBER OF ATOMS
5
ITEM: BOX BOUNDS pp pp ff
0.0000000000000000e+00 1.9576986000000002e+01
0.0000000000000000e+00 1.5176166000000000e+01
-1.5176166000000000e+01 9.1056995999999998e+01
ITEM: ATOMS id type x y z vx vy vz fx fy fz
2301 1 15.8455 7.81929 18.6127 -0.00104667 -7.23828e-05 0.00371415 -24.0313 12.9179 -20.8404
2302 2 15.0548 7.22763 18.9515 -0.00593894 -0.00270844 -0.00350698 -22.181 4.28472 -17.1927
2303 2 16.553 7.2702 18.0765 0.00904114 0.0194971 -0.00616434 17.9593 -0.484752 -17.8271
2304 2 16.2446 7.87315 19.5041 0.00254998 0.00340265 0.0137389 11.8599 3.57104 41.6844
2305 2 15.8834 8.87967 18.7297 0.0135816 0.0150335 -0.0110792 -15.8394 15.7659 -24.2146
ITEM: TIMESTEP
242
ITEM: NUMBER OF ATOMS
5
ITEM: BOX BOUNDS pp pp ff
0.0000000000000000e+00 1.9576986000000002e+01
0.0000000000000000e+00 1.5176166000000000e+01
-1.5176166000000000e+01 9.1056995999999998e+01
ITEM: ATOMS id type x y z vx vy vz fx fy fz
2301 1 15.8131 7.83995 18.5853 -0.00104667 -7.23828e-05 0.00371415 28.7588 -6.05163 23.0329
2302 2 15.02 7.23581 18.9216 -0.00593894 -0.00270844 -0.00350698 -19.2923 7.96784 -18.6682
2303 2 16.5769 7.27609 18.0517 0.00904114 0.0194971 -0.00616434 -5.94311 14.4047 -2.08269
2304 2 16.258 7.87858 19.5618 0.00254998 0.00340265 0.0137389 -25.911 9.93908 -22.0581
2305 2 15.8579 8.90271 18.6871 0.0135816 0.0150335 -0.0110792 -17.6386 14.1419 -20.7526
ITEM: TIMESTEP
243
ITEM: NUMBER OF ATOMS
5
ITEM: BOX BOUNDS pp pp ff
0.0000000000000000e+00 1.9576986000000002e+01
0.0000000000000000e+00 1.5176166000000000e+01
-1.5176166000000000e+01 9.1056995999999998e+01
ITEM: ATOMS id type x y z vx vy vz fx fy fz
2301 1 15.8259 7.85635 18.5936 -0.00104667 -7.23828e-05 0.00371415 4.99353 4.37118 30.5184
2302 2 14.9335 7.26298 18.8431 -0.00593894 -0.00270844 -0.00350698 8.14989 20.0945 -28.2189
2303 2 16.598 7.31293 18.0134 0.00904114 0.0194971 -0.00616434 -16.2247 18.5787 8.88472
2304 2 16.2248 7.9059 19.5972 0.00254998 0.00340265 0.0137389 -21.5853 6.64305 -21.7804
2305 2 15.7876 8.96267 18.5871 0.0135816 0.0150335 -0.0110792 -13.1215 -16.3567 -19.9347
ITEM: TIMESTEP
244
ITEM: NUMBER OF ATOMS
5
ITEM: BOX BOUNDS pp pp ff
0.0000000000000000e+00 1.9576986000000002e+01
0.0000000000000000e+00 1.5176166000000000e+01
-1.5176166000000000e+01 9.1056995999999998e+01
ITEM: ATOMS id type x y z vx vy vz fx fy fz
2301 1 15.8382 7.86875 18.6471 -0.00104667 -7.23828e-05 0.00371415 -20.2917 8.85867 -41.7287
2302 2 14.9203 7.30502 18.7716 -0.00593894 -0.00270844 -0.00350698 -1.41875 8.8966 -17.5781
2303 2 16.5774 7.35544 18.0164 0.00904114 0.0194971 -0.00616434 -9.55981 12.3157 7.84044
2304 2 16.1784 7.92549 19.5717 0.00254998 0.00340265 0.0137389 9.20491 3.4049 45.8308
2305 2 15.7438 8.95393 18.5227 0.0135816 0.0150335 -0.0110792 -10.1612 -11.6485 -15.1598
ITEM: TIMESTEP
245
ITEM: NUMBER OF ATOMS
5
ITEM: BOX BOUNDS pp pp ff
0.0000000000000000e+00 1.9576986000000002e+01
0.0000000000000000e+00 1.5176166000000000e+01
-1.5176166000000000e+01 9.1056995999999998e+01
ITEM: ATOMS id type x y z vx vy vz fx fy fz
2301 1 15.8235 7.89406 18.6467 -0.00104667 -7.23828e-05 0.00371415 -20.7426 10.3071 -17.9856
2302 2 14.9044 7.36182 18.6716 -0.00593894 -0.00270844 -0.00350698 -14.0425 -5.13039 -9.63219
2303 2 16.5425 7.41742 18.0303 0.00904114 0.0194971 -0.00616434 10.2687 -2.98924 -7.71583
2304 2 16.1418 7.95093 19.6077 0.00254998 0.00340265 0.0137389 2.44239 3.32678 32.2932
2305 2 15.6834 8.92868 18.4336 0.0135816 0.0150335 -0.0110792 -6.89578 8.37281 -12.8085
ITEM: TIMESTEP
246
ITEM: NUMBER OF ATOMS
5
ITEM: BOX BOUNDS pp pp ff
0.0000000000000000e+00 1.9576986000000002e+01
0.0000000000000000e+00 1.5176166000000000e+01
-1.5176166000000000e+01 9.1056995999999998e+01
ITEM: ATOMS id type x y z vx vy vz fx fy fz
2301 1 15.8002 7.90656 18.6272 -0.00104667 -7.23828e-05 0.00371415 7.46057 -2.12554 15.9258
2302 2 14.8883 7.35932 18.6558 -0.00593894 -0.00270844 -0.00350698 -13.837 -3.60238 -10.4137
2303 2 16.5517 7.41752 18.0227 0.00904114 0.0194971 -0.00616434 -0.828756 3.84613 -0.461094
2304 2 16.1425 7.9559 19.6445 0.00254998 0.00340265 0.0137389 -14.0993 4.11947 -7.7011
2305 2 15.6727 8.93637 18.415 0.0135816 0.0150335 -0.0110792 -8.57931 12.1999 -13.155
ITEM: TIMESTEP
247
ITEM: NUMBER OF ATOMS
5
ITEM: BOX BOUNDS pp pp ff
0.0000000000000000e+00 1.9576986000000002e+01
0.0000000000000000e+00 1.5176166000000000e+01
-1.5176166000000000e+01 9.1056995999999998e+01
ITEM: ATOMS id type x y z vx vy vz fx fy fz
2301 1 15.7975 7.91118 18.6411 -0.00104667 -7.23828e-05 0.00371415 -12.084 4.35624 -7.91338
2302 2 14.8548 7.35169 18.6282 -0.00593894 -0.00270844 -0.00350698 5.96759 6.86869 -8.64303
2303 2 16.5564 7.42399 18.017 0.00904114 0.0194971 -0.00616434 -6.97664 7.78255 8.04664
2304 2 16.1195 7.966 19.6557 0.00254998 0.00340265 0.0137389 -10.5881 3.78018 -0.793872
2305 2 15.6514 8.96171 18.381 0.0135816 0.0150335 -0.0110792 -4.46006 -10.0932 -4.46265
ITEM: TIMESTEP
248
ITEM: NUMBER OF ATOMS
5
ITEM: BOX BOUNDS pp pp ff
0.0000000000000000e+00 1.9576986000000002e+01
0.0000000000000000e+00 1.5176166000000000e+01
-1.5176166000000000e+01 9.1056995999999998e+01
ITEM: ATOMS id type x y z vx vy vz fx fy fz
2301 1 15.7405 7.93884 18.6343 -0.00104667 -7.23828e-05 0.00371415 -2.97028 5.30844 -10.0357
2302 2 14.8147 7.36612 18.5371 -0.00593894 -0.00270844 -0.00350698 3.61142 4.15714 -3.778
2303 2 16.5356 7.46992 18.0402 0.00904114 0.0194971 -0.00616434 -6.68441 5.33239 8.59057
2304 2 16.0291 8.00193 19.6743 0.00254998 0.00340265 0.0137389 -10.2201 1.95291 -4.93781
2305 2 15.5907 8.96817 18.2952 0.0135816 0.0150335 -0.0110792 -3.46127 -11.3925 2.61045
ITEM: TIMESTEP
249
ITEM: NUMBER OF ATOMS
5
ITEM: BOX BOUNDS pp pp ff
0.0000000000000000e+00 1.9576986000000002e+01
0.0000000000000000e+00 1.5176166000000000e+01
-1.5176166000000000e+01 9.1056995999999998e+01
ITEM: ATOMS id type x y z vx vy vz fx fy fz
2301 1 15.683 7.97296 18.6119 -0.00104667 -7.23828e-05 0.00371415 -0.163984 -5.89228 9.18819
2302 2 14.7834 7.38613 18.4468 -0.00593894 -0.00270844 -0.00350698 -0.335329 -0.0832127 -0.683539
2303 2 16.5057 7.52097 18.0754 0.00904114 0.0194971 -0.00616434 2.3498 -0.912909 1.36122
2304 2 15.9291 8.0383 19.6836 0.00254998 0.00340265 0.0137389 -10.922 1.6369 -14.3428
2305 2 15.529 8.95588 18.22 0.0135816 0.0150335 -0.0110792 -3.99779 5.38739 1.00572
ITEM: TIMESTEP
250
ITEM: NUMBER OF ATOMS
5
ITEM: BOX BOUNDS pp pp ff
0.0000000000000000e+00 1.9576986000000002e+01
0.0000000000000000e+00 1.5176166000000000e+01
-1.5176166000000000e+01 9.1056995999999998e+01
ITEM: ATOMS id type x y z vx vy vz fx fy fz
2301 1 15.6774 7.9702 18.6191 -0.00104667 -7.23828e-05 0.00371415 -3.34794 2.36608 -12.6553
2302 2 14.7801 7.38795 18.4375 -0.00593894 -0.00270844 -0.00350698 -1.1865 -1.57813 0.406991
2303 2 16.5053 7.52489 18.0801 0.00904114 0.0194971 -0.00616434 1.52158 -0.825659 2.99701
2304 2 15.9085 8.04343 19.6698 0.00254998 0.00340265 0.0137389 -6.59294 1.53943 1.86232
2305 2 15.5191 8.96019 18.2139 0.0135816 0.0150335 -0.0110792 -2.48662 -2.00621 4.73667
ITEM: TIMESTEP
251
ITEM: NUMBER OF ATOMS
5
ITEM: BOX BOUNDS pp pp ff
0.0000000000000000e+00 1.9576986000000002e+01
0.0000000000000000e+00 1.5176166000000000e+01
-1.5176166000000000e+01 9.1056995999999998e+01
ITEM: ATOMS id type x y z vx vy vz fx fy fz
2301 1 15.6645 7.97222 18.6005 -0.00104667 -7.23828e-05 0.00371415 -0.694169 0.123468 0.388551
2302 2 14.7742 7.38658 18.4286 -0.00593894 -0.00270844 -0.00350698 -3.92923 -3.60951 -2.32266
2303 2 16.508 7.52729 18.0913 0.00904114 0.0194971 -0.00616434 2.28833 -1.04907 0.281738
2304 2 15.8732 8.052 19.6593 0.00254998 0.00340265 0.0137389 -5.36282 0.443365 0.137867
2305 2 15.5035 8.96056 18.2173 0.0135816 0.0150335 -0.0110792 -3.01021 3.16957 -0.289931
ITEM: TIMESTEP
252
ITEM: NUMBER OF ATOMS
5
ITEM: BOX BOUNDS pp pp ff
0.0000000000000000e+00 1.9576986000000002e+01
0.0000000000000000e+00 1.5176166000000000e+01
-1.5176166000000000e+01 9.1056995999999998e+01
ITEM: ATOMS id type x y z vx vy vz fx fy fz
2301 1 15.6408 7.97598 18.5696 -0.00104667 -7.23828e-05 0.00371415 -1.68433 -5.6158 14.1784
2302 2 14.7539 7.37497 18.4075 -0.00593894 -0.00270844 -0.00350698 -1.1069 -2.23629 -5.35523
2303 2 16.5184 7.52869 18.1111 0.00904114 0.0194971 -0.00616434 -1.07982 1.71983 -0.715083
2304 2 15.7992 8.06775 19.6417 0.00254998 0.00340265 0.0137389 -2.38711 -1.55252 -2.22543
2305 2 15.4692 8.96933 18.2224 0.0135816 0.0150335 -0.0110792 -2.41507 6.06055 -6.24512
ITEM: TIMESTEP
253
ITEM: NUMBER OF ATOMS
5
ITEM: BOX BOUNDS pp pp ff
0.0000000000000000e+00 1.9576986000000002e+01
0.0000000000000000e+00 1.5176166000000000e+01
-1.5176166000000000e+01 9.1056995999999998e+01
ITEM: ATOMS id type x y z vx vy vz fx fy fz
2301 1 15.6265 7.97114 18.5708 -0.00104667 -7.23828e-05 0.00371415 -3.23228 3.97866 -3.45445
2302 2 14.7421 7.36626 18.3901 -0.00593894 -0.00270844 -0.00350698 0.842671 -1.66523 -4.69015
2303 2 16.5225 7.53149 18.1205 0.00904114 0.0194971 -0.00616434 -5.54318 3.63578 2.09286
2304 2 15.758 8.07403 19.6299 0.00254998 0.00340265 0.0137389 0.238951 -2.04158 8.88266
2305 2 15.4485 8.98119 18.2174 0.0135816 0.0150335 -0.0110792 -0.128219 -6.04753 -2.47428
ITEM: TIMESTEP
254
ITEM: NUMBER OF ATOMS
5
ITEM: BOX BOUNDS pp pp ff
0.0000000000000000e+00 1.9576986000000002e+01
0.0000000000000000e+00 1.5176166000000000e+01
-1.5176166000000000e+01 9.1056995999999998e+01
ITEM: ATOMS id type x y z vx vy vz fx fy fz
2301 1 15.5956 7.97544 18.5624 -0.00104667 -7.23828e-05 0.00371415 -2.68405 -0.16473 3.97699
2302 2 14.7268 7.34829 18.3502 -0.00593894 -0.00270844 -0.00350698 3.37698 1.08682 -3.4202
2303 2 16.5126 7.54629 18.1407 0.00904114 0.0194971 -0.00616434 -6.26248 4.20828 2.02807
2304 2 15.6966 8.07754 19.638 0.00254998 0.00340265 0.0137389 -0.760425 -2.61894 0.798947
2305 2 15.417 8.98145 18.2028 0.0135816 0.0150335 -0.0110792 -0.465697 -4.85073 -2.8931
ITEM: TIMESTEP
255
ITEM: NUMBER OF ATOMS
5
ITEM: BOX BOUNDS pp pp ff
0.0000000000000000e+00 1.9576986000000002e+01
0.0000000000000000e+00 1.5176166000000000e+01
-1.5176166000000000e+01 9.1056995999999998e+01
ITEM: ATOMS id type x y z vx vy vz fx fy fz
2301 1 15.5393 7.98189 18.5592 -0.00104667 -7.23828e-05 0.00371415 -1.26744 -6.84955 10.4879
2302 2 14.7108 7.32232 18.2778 -0.00593894 -0.00270844 -0.00350698 3.60476 3.08621 0.0783715
2303 2 16.4808 7.58062 18.1782 0.00904114 0.0194971 -0.00616434 -2.8661 2.44386 0.909765
2304 2 15.5966 8.07652 19.653 0.00254998 0.00340265 0.0137389 -2.44143 -2.39818 -8.08733
2305 2 15.3654 8.96956 18.1721 0.0135816 0.0150335 -0.0110792 -2.1751 1.4966 -3.10318
ITEM: TIMESTEP
256
ITEM: NUMBER OF ATOMS
5
ITEM: BOX BOUNDS pp pp ff
0.0000000000000000e+00 1.9576986000000002e+01
0.0000000000000000e+00 1.5176166000000000e+01
-1.5176166000000000e+01 9.1056995999999998e+01
ITEM: ATOMS id type x y z vx vy vz fx fy fz
2301 1 15.5178 7.97572 18.5711 -0.00104667 -7.23828e-05 0.00371415 -0.411305 5.03281 -9.11128
2302 2 14.7096 7.31693 18.2523 -0.00593894 -0.00270844 -0.00350698 0.406916 0.0195552 1.68498
2303 2 16.466 7.59581 18.1926 0.00904114 0.0194971 -0.00616434 -0.886664 0.527792 1.70058
2304 2 15.5582 8.07319 19.6483 0.00254998 0.00340265 0.0137389 -2.33071 -1.80093 3.7208
2305 2 15.3445 8.9672 18.1574 0.0135816 0.0150335 -0.0110792 -1.23102 -5.95791 2.1847
ITEM: TIMESTEP
257
ITEM: NUMBER OF ATOMS
5
ITEM: BOX BOUNDS pp pp ff
0.0000000000000000e+00 1.9576986000000002e+01
0.0000000000000000e+00 1.5176166000000000e+01
-1.5176166000000000e+01 9.1056995999999998e+01
ITEM: ATOMS id type x y z vx vy vz fx fy fz
2301 1 15.4939 7.97825 18.5672 -0.00104667 -7.23828e-05 0.00371415 0.530569 0.98025 -1.93251
2302 2 14.7091 7.31118 18.2279 -0.00593894 -0.00270844 -0.00350698 -2.7064 -2.56613 1.01368
2303 2 16.4485 7.61307 18.2112 0.00904114 0.0194971 -0.00616434 3.48969 -1.31631 -0.154759
2304 2 15.5127 8.06634 19.65 0.00254998 0.00340265 0.0137389 -2.53071 -0.915395 0.960599
2305 2 15.3197 8.95382 18.1456 0.0135816 0.0150335 -0.0110792 -2.46946 1.97348 0.0575271
ITEM: TIMESTEP
258
ITEM: NUMBER OF ATOMS
5
ITEM: BOX BOUNDS pp pp ff
0.0000000000000000e+00 1.9576986000000002e+01
0.0000000000000000e+00 1.5176166000000000e+01
-1.5176166000000000e+01 9.1056995999999998e+01
ITEM: ATOMS id type x y z vx vy vz fx fy fz
2301 1 15.4723 7.9825 18.5598 -0.00104667 -7.23828e-05 0.00371415 -0.267416 -7.25222 7.47019
2302 2 14.7035 7.30086 18.2066 -0.00593894 -0.00270844 -0.00350698 -1.56286 -1.73839 0.96189
2303 2 16.4384 7.62702 18.2285 0.00904114 0.0194971 -0.00616434 4.03293 -1.20386 -0.911009
2304 2 15.4646 8.0581 19.6535 0.00254998 0.00340265 0.0137389 -1.9732 0.173835 -5.62076
2305 2 15.2915 8.94481 18.1345 0.0135816 0.0150335 -0.0110792 -3.21465 8.38991 -2.05268
ITEM: TIMESTEP
259
ITEM: NUMBER OF ATOMS
5
ITEM: BOX BOUNDS pp pp ff
0.0000000000000000e+00 1.9576986000000002e+01
0.0000000000000000e+00 1.5176166000000000e+01
-1.5176166000000000e+01 9.1056995999999998e+01
ITEM: ATOMS id type x y z vx vy vz fx fy fz
2301 1 15.4572 7.9764 18.5641 -0.00104667 -7.23828e-05 0.00371415 0.0663922 1.96 -6.16945
2302 2 14.6977 7.29169 18.1933 -0.00593894 -0.00270844 -0.00350698 -0.662753 -1.91755 1.77809
2303 2 16.4366 7.635 18.2392 0.00904114 0.0194971 -0.00616434 0.782134 -0.632224 0.775318
2304 2 15.4294 8.05271 19.6488 0.00254998 0.00340265 0.0137389 -1.40168 0.515305 0.252239
2305 2 15.2684 8.9491 18.1243 0.0135816 0.0150335 -0.0110792 -1.29375 -1.56828 3.18295
ITEM: TIMESTEP
260
ITEM: NUMBER OF ATOMS
5
ITEM: BOX BOUNDS pp pp ff
0.0000000000000000e+00 1.9576986000000002e+01
0.0000000000000000e+00 1.5176166000000000e+01
-1.5176166000000000e+01 9.1056995999999998e+01
ITEM: ATOMS id type x y z vx vy vz fx fy fz
2301 1 15.4421 7.97433 18.5555 -0.00104667 -7.23828e-05 0.00371415 0.141309 1.94695 -1.80456
2302 2 14.6905 7.27844 18.1836 -0.00593894 -0.00270844 -0.00350698 0.868671 -0.953333 0.951074
2303 2 16.4364 7.64174 18.2516 0.00904114 0.0194971 -0.00616434 -2.31317 0.503278 0.766414
2304 2 15.391 8.04835 19.6447 0.00254998 0.00340265 0.0137389 -0.213137 0.586867 -3.12854
2305 2 15.2423 8.95016 18.1208 0.0135816 0.0150335 -0.0110792 -0.529301 -3.50922 2.9213
ITEM: TIMESTEP
261
ITEM: NUMBER OF ATOMS
5
ITEM: BOX BOUNDS pp pp ff
0.0000000000000000e+00 1.9576986000000002e+01
0.0000000000000000e+00 1.5176166000000000e+01
-1.5176166000000000e+01 9.1056995999999998e+01
ITEM: ATOMS id type x y z vx vy vz fx fy fz
2301 1 15.4301 7.97578 18.5457 -0.00104667 -7.23828e-05 0.00371415 -1.35188 -5.21967 4.97079
2302 2 14.686 7.26617 18.1773 -0.00593894 -0.00270844 -0.00350698 2.32896 0.603918 0.088535
2303 2 16.4325 7.648 18.2629 0.00904114 0.0194971 -0.00616434 -2.5309 1.20119 -0.246401
2304 2 15.3596 8.04576 19.6363 0.00254998 0.00340265 0.0137389 0.908805 0.8916 -4.60544
2305 2 15.2203 8.94538 18.1226 0.0135816 0.0150335 -0.0110792 -1.00044 1.50261 -0.729289
ITEM: TIMESTEP
262
ITEM: NUMBER OF ATOMS
5
ITEM: BOX BOUNDS pp pp ff
0.0000000000000000e+00 1.9576986000000002e+01
0.0000000000000000e+00 1.5176166000000000e+01
-1.5176166000000000e+01 9.1056995999999998e+01
ITEM: ATOMS id type x y z vx vy vz fx fy fz
2301 1 15.4144 7.96852 18.5431 -0.00104667 -7.23828e-05 0.00371415 -1.13129 1.36123 -2.43238
2302 2 14.685 7.25344 18.1704 -0.00593894 -0.00270844 -0.00350698 0.316747 -1.63007 -1.3256
2303 2 16.4238 7.65707 18.2751 0.00904114 0.0194971 -0.00616434 -1.30661 0.607262 -0.745617
2304 2 15.3259 8.04437 19.6191 0.00254998 0.00340265 0.0137389 1.08827 0.634917 4.27609
2305 2 15.194 8.94258 18.1234 0.0135816 0.0150335 -0.0110792 -0.179727 -1.53074 -0.648676
ITEM: TIMESTEP
263
ITEM: NUMBER OF ATOMS
5
ITEM: BOX BOUNDS pp pp ff
0.0000000000000000e+00 1.9576986000000002e+01
0.0000000000000000e+00 1.5176166000000000e+01
-1.5176166000000000e+01 9.1056995999999998e+01
ITEM: ATOMS id type x y z vx vy vz fx fy fz
2301 1 15.3994 7.96492 18.5367 -0.00104667 -7.23828e-05 0.00371415 -0.572461 2.20301 1.30828
2302 2 14.6847 7.24004 18.1623 -0.00593894 -0.00270844 -0.00350698 -1.03765 -2.56173 -2.22478
2303 2 16.4143 7.66564 18.2839 0.00904114 0.0194971 -0.00616434 -0.114249 0.392398 -1.54827
2304 2 15.2999 8.04434 19.6124 0.00254998 0.00340265 0.0137389 1.25514 0.123198 3.71789
2305 2 15.1719 8.93757 18.1229 0.0135816 0.0150335 -0.0110792 -0.480956 -0.360317 -2.36116
ITEM: TIMESTEP
264
ITEM: NUMBER OF ATOMS
5
ITEM: BOX BOUNDS pp pp ff
0.0000000000000000e+00 1.9576986000000002e+01
0.0000000000000000e+00 1.5176166000000000e+01
-1.5176166000000000e+01 9.1056995999999998e+01
ITEM: ATOMS id type x y z vx vy vz fx fy fz
2301 1 15.3813 7.96486 18.5318 -0.00104667 -7.23828e-05 0.00371415 -1.22691 -3.76802 4.47885
2302 2 14.6825 7.2201 18.149 -0.00593894 -0.00270844 -0.00350698 0.963028 0.714764 -0.500843
2303 2 16.4033 7.67611 18.291 0.00904114 0.0194971 -0.00616434 -0.638097 1.14357 -1.59086
2304 2 15.2727 8.04453 19.6116 0.00254998 0.00340265 0.0137389 1.34395 -0.174097 0.341035
2305 2 15.1459 8.9312 18.1179 0.0135816 0.0150335 -0.0110792 -1.2028 2.12419 -3.97883
ITEM: TIMESTEP
265
ITEM: NUMBER OF ATOMS
5
ITEM: BOX BOUNDS pp pp ff
0.0000000000000000e+00 1.9576986000000002e+01
0.0000000000000000e+00 1.5176166000000000e+01
-1.5176166000000000e+01 9.1056995999999998e+01
ITEM: ATOMS id type x y z vx vy vz fx fy fz
2301 1 15.3601 7.95806 18.5347 -0.00104667 -7.23828e-05 0.00371415 0.0317972 2.67723 -3.69529
2302 2 14.6819 7.20046 18.1342 -0.00593894 -0.00270844 -0.00350698 1.13125 1.6059 1.65077
2303 2 16.3907 7.68914 18.2957 0.00904114 0.0194971 -0.00616434 -2.17209 1.21711 -0.498237
2304 2 15.2466 8.04442 19.6114 0.00254998 0.00340265 0.0137389 0.58499 -0.754835 1.72704
2305 2 15.1164 8.92833 18.1057 0.0135816 0.0150335 -0.0110792 -0.197323 -4.56166 -0.567366
ITEM: TIMESTEP
266
ITEM: NUMBER OF ATOMS
5
ITEM: BOX BOUNDS pp pp ff
0.0000000000000000e+00 1.9576986000000002e+01
0.0000000000000000e+00 1.5176166000000000e+01
-1.5176166000000000e+01 9.1056995999999998e+01
ITEM: ATOMS id type x y z vx vy vz fx fy fz
2301 1 15.3429 7.9567 18.5313 -0.00104667 -7.23828e-05 0.00371415 0.788972 1.4378 0.6103
2302 2 14.6832 7.18699 18.1248 -0.00593894 -0.00270844 -0.00350698 0.350018 1.42856 2.15777
2303 2 16.377 7.70162 18.2987 0.00904114 0.0194971 -0.00616434 -1.21939 1.04528 -0.711481
2304 2 15.2262 8.04316 19.6139 0.00254998 0.00340265 0.0137389 0.486096 -0.870103 -2.54816
2305 2 15.0922 8.91889 18.0948 0.0135816 0.0150335 -0.0110792 -0.911309 -2.61454 -1.00398
ITEM: TIMESTEP
267
ITEM: NUMBER OF ATOMS
5
ITEM: BOX BOUNDS pp pp ff
0.0000000000000000e+00 1.9576986000000002e+01
0.0000000000000000e+00 1.5176166000000000e+01
-1.5176166000000000e+01 9.1056995999999998e+01
ITEM: ATOMS id type x y z vx vy vz fx fy fz
2301 1 15.3234 7.95789 18.5284 -0.00104667 -7.23828e-05 0.00371415 0.200556 -3.86514 2.71501
2302 2 14.6854 7.17336 18.1175 -0.00593894 -0.00270844 -0.00350698 -0.323977 1.03783 2.60347