ITEM: TIMESTEP
207
ITEM: NUMBER OF ATOMS
7
ITEM: BOX BOUNDS pp pp pp
2.2395334915819021e-02 1.9677604665084189e+01
1.7279649275147690e-02 1.5182720350724850e+01
-1.5070241561231406e+01 7.7894075561231261e+01
ITEM: ATOMS id type xs ys zs
2304 2 0.448871 0.473554 0.501536
2305 2 0.521121 0.474759 0.489945
2306 2 0.532347 0.479736 0.508968
2303 1 0.500027 0.500024 0.500002
2307 2 0.497633 0.571927 0.49955
2302 2 0.474422 0.486765 0.550874
2301 2 0.525578 0.513235 0.54934
ITEM: TIMESTEP
208
ITEM: NUMBER OF ATOMS
7
ITEM: BOX BOUNDS pp pp pp
2.2395334915819021e-02 1.9677604665084189e+01
1.7279649275147690e-02 1.5182720350724850e+01
-1.5070241561231406e+01 7.7894075561231261e+01
ITEM: ATOMS id type xs ys zs
2304 2 0.448871 0.473554 0.501536
2305 2 0.521121 0.474759 0.489945
2306 2 0.531873 0.481349 0.50843
2303 1 0.500027 0.500026 0.500002
2307 2 0.497996 0.571321 0.499504
2302 2 0.474422 0.486765 0.550874
2301 2 0.525547 0.512983 0.549323
ITEM: TIMESTEP
209
ITEM: NUMBER OF ATOMS
7
ITEM: BOX BOUNDS pp pp pp
2.2395334915819021e-02 1.9677604665084189e+01
1.7279649275147690e-02 1.5182720350724850e+01
-1.5070241561231406e+01 7.7894075561231261e+01
ITEM: ATOMS id type xs ys zs
2304 2 0.448871 0.473555 0.501536
2305 2 0.521121 0.47476 0.489944
2306 2 0.531418 0.483028 0.507892
2303 1 0.500024 0.500041 0.500001
2307 2 0.499805 0.5683 0.499274
2302 2 0.474425 0.486764 0.550873
2301 2 0.525316 0.511266 0.549209
ITEM: TIMESTEP
210
ITEM: NUMBER OF ATOMS
7
ITEM: BOX BOUNDS pp pp pp
2.2395334915819021e-02 1.9677604665084189e+01
1.7279649275147690e-02 1.5182720350724850e+01
-1.5070241561231406e+01 7.7894075561231261e+01
ITEM: ATOMS id type xs ys zs
2304 2 0.448868 0.473559 0.501535
2305 2 0.521121 0.474765 0.489944
2306 2 0.530904 0.485597 0.507172
2303 1 0.500005 0.500158 0.499994
2307 2 0.501806 0.564948 0.499019
2302 2 0.474449 0.486755 0.550871
2301 2 0.523895 0.504996 0.548711
ITEM: TIMESTEP
211
ITEM: NUMBER OF ATOMS
7
ITEM: BOX BOUNDS pp pp pp
2.2395334915819021e-02 1.9677604665084189e+01
1.7279649275147690e-02 1.5182720350724850e+01
-1.5070241561231406e+01 7.7894075561231261e+01
ITEM: ATOMS id type xs ys zs
2304 2 0.448847 0.473591 0.501531
2305 2 0.521122 0.47481 0.48994
2306 2 0.530724 0.48985 0.506367
2303 1 0.49986 0.501044 0.499946
2307 2 0.504266 0.560773 0.498702
2302 2 0.474648 0.486711 0.550851
2301 2 0.518808 0.501062 0.547827
ITEM: TIMESTEP
212
ITEM: NUMBER OF ATOMS
7
ITEM: BOX BOUNDS pp pp pp
2.2395334915819021e-02 1.9677604665084189e+01
1.7279649275147690e-02 1.5182720350724850e+01
-1.5070241561231406e+01 7.7894075561231261e+01
ITEM: ATOMS id type xs ys zs
2304 2 0.448731 0.473781 0.501507
2305 2 0.52112 0.475073 0.489916
2306 2 0.531141 0.496444 0.505533
2303 1 0.499145 0.505406 0.499723
2307 2 0.506453 0.556919 0.498409
2302 2 0.475867 0.486484 0.550734
2301 2 0.514458 0.495063 0.547095
ITEM: TIMESTEP
213
ITEM: NUMBER OF ATOMS
7
ITEM: BOX BOUNDS pp pp pp
2.2395334915819021e-02 1.9677604665084189e+01
1.7279649275147690e-02 1.5182720350724850e+01
-1.5070241561231406e+01 7.7894075561231261e+01
ITEM: ATOMS id type xs ys zs
2304 2 0.448455 0.474372 0.501433
2305 2 0.521074 0.475781 0.489882
2306 2 0.531625 0.500831 0.505067
2303 1 0.498183 0.510505 0.499382
2307 2 0.508187 0.55387 0.498148
2302 2 0.479327 0.485861 0.550422
2301 2 0.509371 0.491395 0.546454
ITEM: TIMESTEP
214
ITEM: NUMBER OF ATOMS
7
ITEM: BOX BOUNDS pp pp pp
2.2395334915819021e-02 1.9677604665084189e+01
1.7279649275147690e-02 1.5182720350724850e+01
-1.5070241561231406e+01 7.7894075561231261e+01
ITEM: ATOMS id type xs ys zs
2304 2 0.447939 0.475993 0.50124
2305 2 0.520814 0.47726 0.489911
2306 2 0.532499 0.505537 0.504614
2303 1 0.497082 0.512713 0.498839
2307 2 0.510105 0.551642 0.497794
2302 2 0.484094 0.48421 0.550025
2301 2 0.504283 0.485577 0.545741
ITEM: TIMESTEP
215
ITEM: NUMBER OF ATOMS
7
ITEM: BOX BOUNDS pp pp pp
2.2395334915819021e-02 1.9677604665084189e+01
1.7279649275147690e-02 1.5182720350724850e+01
-1.5070241561231406e+01 7.7894075561231261e+01
ITEM: ATOMS id type xs ys zs
2304 2 0.447449 0.478223 0.501013
2305 2 0.520338 0.478772 0.49003
2306 2 0.533654 0.508227 0.504473
2303 1 0.495761 0.510123 0.498237
2307 2 0.511565 0.552975 0.497456
2302 2 0.484687 0.481653 0.550109
2301 2 0.503021 0.482263 0.544665
ITEM: TIMESTEP
216
ITEM: NUMBER OF ATOMS
7
ITEM: BOX BOUNDS pp pp pp
2.2395334915819021e-02 1.9677604665084189e+01
1.7279649275147690e-02 1.5182720350724850e+01
-1.5070241561231406e+01 7.7894075561231261e+01
ITEM: ATOMS id type xs ys zs
2304 2 0.446835 0.480076 0.50086
2305 2 0.52002 0.479399 0.490053
2306 2 0.534664 0.51013 0.504447
2303 1 0.494337 0.508476 0.497654
2307 2 0.512816 0.555425 0.497161
2302 2 0.485705 0.4782 0.55009
2301 2 0.502161 0.478727 0.543589
ITEM: TIMESTEP
217
ITEM: NUMBER OF ATOMS
7
ITEM: BOX BOUNDS pp pp pp
2.2395334915819021e-02 1.9677604665084189e+01
1.7279649275147690e-02 1.5182720350724850e+01
-1.5070241561231406e+01 7.7894075561231261e+01
ITEM: ATOMS id type xs ys zs
2304 2 0.445811 0.48198 0.500747
2305 2 0.51987 0.479035 0.489946
2306 2 0.535296 0.512047 0.504407
2303 1 0.493255 0.507326 0.49706
2307 2 0.514284 0.558475 0.496816
2302 2 0.486914 0.472892 0.5497
2301 2 0.500764 0.474813 0.542514
ITEM: TIMESTEP
218
ITEM: NUMBER OF ATOMS
7
ITEM: BOX BOUNDS pp pp pp
2.2395334915819021e-02 1.9677604665084189e+01
1.7279649275147690e-02 1.5182720350724850e+01
-1.5070241561231406e+01 7.7894075561231261e+01
ITEM: ATOMS id type xs ys zs
2304 2 0.444493 0.483866 0.500679
2305 2 0.520002 0.477053 0.489679
2306 2 0.534927 0.513622 0.504294
2303 1 0.493202 0.507609 0.496675
2307 2 0.515676 0.561236 0.496414
2302 2 0.487505 0.466298 0.548908
2301 2 0.499427 0.471118 0.541626
ITEM: TIMESTEP
219
ITEM: NUMBER OF ATOMS
7
ITEM: BOX BOUNDS pp pp pp
2.2395334915819021e-02 1.9677604665084189e+01
1.7279649275147690e-02 1.5182720350724850e+01
-1.5070241561231406e+01 7.7894075561231261e+01
ITEM: ATOMS id type xs ys zs
2304 2 0.443754 0.486172 0.5006
2305 2 0.519955 0.473921 0.489466
2306 2 0.533916 0.514451 0.504222
2303 1 0.493569 0.507642 0.496514
2307 2 0.51675 0.563603 0.495955
2302 2 0.488177 0.459705 0.548247
2301 2 0.49911 0.468109 0.540652
ITEM: TIMESTEP
220
ITEM: NUMBER OF ATOMS
7
ITEM: BOX BOUNDS pp pp pp
2.2395334915819021e-02 1.9677604665084189e+01
1.7279649275147690e-02 1.5182720350724850e+01
-1.5070241561231406e+01 7.7894075561231261e+01
ITEM: ATOMS id type xs ys zs
2304 2 0.44359 0.4884 0.500524
2305 2 0.519501 0.470761 0.489382
2306 2 0.533184 0.514646 0.504317
2303 1 0.494103 0.50797 0.496368
2307 2 0.517044 0.564367 0.495547
2302 2 0.489174 0.454958 0.547171
2301 2 0.498301 0.465575 0.540456
ITEM: TIMESTEP
221
ITEM: NUMBER OF ATOMS
7
ITEM: BOX BOUNDS pp pp pp
2.2395334915819021e-02 1.9677604665084189e+01
1.7279649275147690e-02 1.5182720350724850e+01
-1.5070241561231406e+01 7.7894075561231261e+01
ITEM: ATOMS id type xs ys zs
2304 2 0.443684 0.489854 0.500466
2305 2 0.519131 0.468738 0.489353
2306 2 0.532745 0.514741 0.504384
2303 1 0.494299 0.507525 0.496334
2307 2 0.517147 0.564977 0.495308
2302 2 0.488546 0.450999 0.547553
2301 2 0.499256 0.465626 0.53938
ITEM: TIMESTEP
222
ITEM: NUMBER OF ATOMS
7
ITEM: BOX BOUNDS pp pp pp
2.2395334915819021e-02 1.9677604665084189e+01
1.7279649275147690e-02 1.5182720350724850e+01
-1.5070241561231406e+01 7.7894075561231261e+01
ITEM: ATOMS id type xs ys zs
2304 2 0.443778 0.492352 0.500367
2305 2 0.518401 0.465085 0.489307
2306 2 0.53199 0.514877 0.504514
2303 1 0.494862 0.507072 0.496278
2307 2 0.517142 0.565569 0.494898
2302 2 0.489852 0.446966 0.546477
2301 2 0.498596 0.462913 0.539291
ITEM: TIMESTEP
223
ITEM: NUMBER OF ATOMS
7
ITEM: BOX BOUNDS pp pp pp
2.2395334915819021e-02 1.9677604665084189e+01
1.7279649275147690e-02 1.5182720350724850e+01
-1.5070241561231406e+01 7.7894075561231261e+01
ITEM: ATOMS id type xs ys zs
2304 2 0.44366 0.495432 0.500215
2305 2 0.516885 0.460259 0.489316
2306 2 0.531369 0.5149 0.504784
2303 1 0.496191 0.507511 0.496171
2307 2 0.516244 0.563732 0.494422
2302 2 0.490423 0.440372 0.545875
2301 2 0.498673 0.461552 0.538562
ITEM: TIMESTEP
224
ITEM: NUMBER OF ATOMS
7
ITEM: BOX BOUNDS pp pp pp
2.2395334915819021e-02 1.9677604665084189e+01
1.7279649275147690e-02 1.5182720350724850e+01
-1.5070241561231406e+01 7.7894075561231261e+01
ITEM: ATOMS id type xs ys zs
2304 2 0.444267 0.497346 0.500066
2305 2 0.515988 0.45813 0.489374
2306 2 0.531137 0.5149 0.504911
2303 1 0.495317 0.504246 0.49632
2307 2 0.516397 0.565344 0.49403
2302 2 0.491665 0.438637 0.544904
2301 2 0.497971 0.459192 0.538878
ITEM: TIMESTEP
225
ITEM: NUMBER OF ATOMS
7
ITEM: BOX BOUNDS pp pp pp
2.2395334915819021e-02 1.9677604665084189e+01
1.7279649275147690e-02 1.5182720350724850e+01
-1.5070241561231406e+01 7.7894075561231261e+01
ITEM: ATOMS id type xs ys zs
2304 2 0.444427 0.500138 0.499861
2305 2 0.514457 0.454308 0.489419
2306 2 0.530579 0.514797 0.505083
2303 1 0.49526 0.501806 0.496499
2307 2 0.51607 0.565826 0.493462
2302 2 0.492611 0.432043 0.544396
2301 2 0.497996 0.458964 0.538298
ITEM: TIMESTEP
226
ITEM: NUMBER OF ATOMS
7
ITEM: BOX BOUNDS pp pp pp
2.2395334915819021e-02 1.9677604665084189e+01
1.7279649275147690e-02 1.5182720350724850e+01
-1.5070241561231406e+01 7.7894075561231261e+01
ITEM: ATOMS id type xs ys zs
2304 2 0.443431 0.501379 0.499788
2305 2 0.513435 0.451821 0.489399
2306 2 0.530161 0.514575 0.505177
2303 1 0.496983 0.504547 0.49641
2307 2 0.51502 0.562632 0.493288
2302 2 0.492943 0.426774 0.54436
2301 2 0.498198 0.460044 0.537701
ITEM: TIMESTEP
227
ITEM: NUMBER OF ATOMS
7
ITEM: BOX BOUNDS pp pp pp
2.2395334915819021e-02 1.9677604665084189e+01
1.7279649275147690e-02 1.5182720350724850e+01
-1.5070241561231406e+01 7.7894075561231261e+01
ITEM: ATOMS id type xs ys zs
2304 2 0.443121 0.502058 0.499724
2305 2 0.51273 0.450941 0.48944
2306 2 0.530146 0.514399 0.50528
2303 1 0.497244 0.505031 0.496335
2307 2 0.514547 0.561292 0.493111
2302 2 0.493626 0.426511 0.543744
2301 2 0.497765 0.457852 0.537991
ITEM: TIMESTEP
228
ITEM: NUMBER OF ATOMS
7
ITEM: BOX BOUNDS pp pp pp
2.2395334915819021e-02 1.9677604665084189e+01
1.7279649275147690e-02 1.5182720350724850e+01
-1.5070241561231406e+01 7.7894075561231261e+01
ITEM: ATOMS id type xs ys zs
2304 2 0.443517 0.503278 0.499542
2305 2 0.511343 0.450542 0.489607
2306 2 0.530324 0.514004 0.505476
2303 1 0.495622 0.501915 0.496394
2307 2 0.514369 0.56155 0.492554
2302 2 0.494643 0.423414 0.543127
2301 2 0.497349 0.456668 0.538107
ITEM: TIMESTEP
229
ITEM: NUMBER OF ATOMS
7
ITEM: BOX BOUNDS pp pp pp
2.2395334915819021e-02 1.9677604665084189e+01
1.7279649275147690e-02 1.5182720350724850e+01
-1.5070241561231406e+01 7.7894075561231261e+01
ITEM: ATOMS id type xs ys zs
2304 2 0.443203 0.504096 0.49941
2305 2 0.510204 0.44962 0.489676
2306 2 0.530006 0.513486 0.50552
2303 1 0.495365 0.501366 0.496553
2307 2 0.513864 0.560454 0.492168
2302 2 0.49536 0.418031 0.543019
2301 2 0.497275 0.458377 0.537812
ITEM: TIMESTEP
230
ITEM: NUMBER OF ATOMS
7
ITEM: BOX BOUNDS pp pp pp
2.2395334915819021e-02 1.9677604665084189e+01
1.7279649275147690e-02 1.5182720350724850e+01
-1.5070241561231406e+01 7.7894075561231261e+01
ITEM: ATOMS id type xs ys zs
2304 2 0.441879 0.504946 0.49929
2305 2 0.508744 0.447744 0.489698
2306 2 0.529182 0.512668 0.505492
2303 1 0.496428 0.503249 0.496751
2307 2 0.512716 0.557253 0.491806
2302 2 0.496514 0.414643 0.542414
2301 2 0.49704 0.4569 0.537932
ITEM: TIMESTEP
231
ITEM: NUMBER OF ATOMS
7
ITEM: BOX BOUNDS pp pp pp
2.2395334915819021e-02 1.9677604665084189e+01
1.7279649275147690e-02 1.5182720350724850e+01
-1.5070241561231406e+01 7.7894075561231261e+01
ITEM: ATOMS id type xs ys zs
2304 2 0.441387 0.50553 0.499234
2305 2 0.507714 0.447095 0.489821
2306 2 0.529106 0.512304 0.505625
2303 1 0.49586 0.502643 0.496696
2307 2 0.512201 0.556158 0.49147
2302 2 0.497337 0.414324 0.541849
2301 2 0.496987 0.453999 0.538226
ITEM: TIMESTEP
232
ITEM: NUMBER OF ATOMS
7
ITEM: BOX BOUNDS pp pp pp
2.2395334915819021e-02 1.9677604665084189e+01
1.7279649275147690e-02 1.5182720350724850e+01
-1.5070241561231406e+01 7.7894075561231261e+01
ITEM: ATOMS id type xs ys zs
2304 2 0.441041 0.506224 0.499181
2305 2 0.506448 0.446411 0.490013
2306 2 0.529065 0.511946 0.505818
2303 1 0.494495 0.501062 0.496609
2307 2 0.511725 0.555401 0.491004
2302 2 0.498408 0.410276 0.541544
2301 2 0.497084 0.45416 0.538251
ITEM: TIMESTEP
233
ITEM: NUMBER OF ATOMS
7
ITEM: BOX BOUNDS pp pp pp
2.2395334915819021e-02 1.9677604665084189e+01
1.7279649275147690e-02 1.5182720350724850e+01
-1.5070241561231406e+01 7.7894075561231261e+01
ITEM: ATOMS id type xs ys zs
2304 2 0.440516 0.50661 0.499171
2305 2 0.505568 0.445096 0.490091
2306 2 0.528325 0.51159 0.505792
2303 1 0.494231 0.501306 0.49672
2307 2 0.511234 0.554231 0.490727
2302 2 0.499187 0.406937 0.541433
2301 2 0.497427 0.454698 0.538233
ITEM: TIMESTEP
234
ITEM: NUMBER OF ATOMS
7
ITEM: BOX BOUNDS pp pp pp
2.2395334915819021e-02 1.9677604665084189e+01
1.7279649275147690e-02 1.5182720350724850e+01
-1.5070241561231406e+01 7.7894075561231261e+01
ITEM: ATOMS id type xs ys zs
2304 2 0.439864 0.50698 0.499186
2305 2 0.504606 0.443621 0.490185
2306 2 0.527335 0.511252 0.505731
2303 1 0.494162 0.501782 0.496808
2307 2 0.510675 0.552792 0.490471
2302 2 0.499827 0.406929 0.541151
2301 2 0.498098 0.451806 0.538434
ITEM: TIMESTEP
235
ITEM: NUMBER OF ATOMS
7
ITEM: BOX BOUNDS pp pp pp
2.2395334915819021e-02 1.9677604665084189e+01
1.7279649275147690e-02 1.5182720350724850e+01
-1.5070241561231406e+01 7.7894075561231261e+01
ITEM: ATOMS id type xs ys zs
2304 2 0.438747 0.507854 0.499274
2305 2 0.502198 0.441306 0.490572
2306 2 0.525497 0.51083 0.505768
2303 1 0.492838 0.500859 0.49662
2307 2 0.509585 0.549998 0.489862
2302 2 0.501275 0.404514 0.540835
2301 2 0.499978 0.447757 0.538722
ITEM: TIMESTEP
236
ITEM: NUMBER OF ATOMS
7
ITEM: BOX BOUNDS pp pp pp
2.2395334915819021e-02 1.9677604665084189e+01
1.7279649275147690e-02 1.5182720350724850e+01
-1.5070241561231406e+01 7.7894075561231261e+01
ITEM: ATOMS id type xs ys zs
2304 2 0.438051 0.508504 0.499334
2305 2 0.5003 0.43954 0.490871
2306 2 0.524124 0.510548 0.505813
2303 1 0.491396 0.499874 0.496482
2307 2 0.508818 0.548042 0.489365
2302 2 0.502438 0.39922 0.540835
2301 2 0.501443 0.448143 0.538772
ITEM: TIMESTEP
237
ITEM: NUMBER OF ATOMS
7
ITEM: BOX BOUNDS pp pp pp
2.2395334915819021e-02 1.9677604665084189e+01
1.7279649275147690e-02 1.5182720350724850e+01
-1.5070241561231406e+01 7.7894075561231261e+01
ITEM: ATOMS id type xs ys zs
2304 2 0.437368 0.509069 0.499368
2305 2 0.498417 0.437497 0.491107
2306 2 0.522647 0.510238 0.505793
2303 1 0.490023 0.499392 0.496467
2307 2 0.508073 0.546185 0.488884
2302 2 0.503358 0.397029 0.540842
2301 2 0.503021 0.445769 0.538922
ITEM: TIMESTEP
238
ITEM: NUMBER OF ATOMS
7
ITEM: BOX BOUNDS pp pp pp
2.2395334915819021e-02 1.9677604665084189e+01
1.7279649275147690e-02 1.5182720350724850e+01
-1.5070241561231406e+01 7.7894075561231261e+01
ITEM: ATOMS id type xs ys zs
2304 2 0.436842 0.509305 0.499368
2305 2 0.497543 0.436599 0.491183
2306 2 0.521964 0.510113 0.505746
2303 1 0.489853 0.499523 0.496467
2307 2 0.507659 0.545245 0.488729
2302 2 0.503615 0.39783 0.540869
2301 2 0.503727 0.443218 0.539033
ITEM: TIMESTEP
239
ITEM: NUMBER OF ATOMS
7
ITEM: BOX BOUNDS pp pp pp
2.2395334915819021e-02 1.9677604665084189e+01
1.7279649275147690e-02 1.5182720350724850e+01
-1.5070241561231406e+01 7.7894075561231261e+01
ITEM: ATOMS id type xs ys zs
2304 2 0.435948 0.509682 0.499339
2305 2 0.49609 0.435475 0.491302
2306 2 0.521058 0.51001 0.505675
2303 1 0.489598 0.499561 0.496416
2307 2 0.506957 0.54377 0.488534
2302 2 0.503863 0.395992 0.541144
2301 2 0.504843 0.442561 0.539055
ITEM: TIMESTEP
240
ITEM: NUMBER OF ATOMS
7
ITEM: BOX BOUNDS pp pp pp
2.2395334915819021e-02 1.9677604665084189e+01
1.7279649275147690e-02 1.5182720350724850e+01
-1.5070241561231406e+01 7.7894075561231261e+01
ITEM: ATOMS id type xs ys zs
2304 2 0.435345 0.510123 0.499243
2305 2 0.494333 0.434677 0.491472
2306 2 0.520447 0.510086 0.505655
2303 1 0.488214 0.498612 0.496309
2307 2 0.506252 0.542442 0.488292
2302 2 0.503963 0.393299 0.541595
2301 2 0.50616 0.442486 0.539023
ITEM: TIMESTEP
241
ITEM: NUMBER OF ATOMS
7
ITEM: BOX BOUNDS pp pp pp
2.2395334915819021e-02 1.9677604665084189e+01
1.7279649275147690e-02 1.5182720350724850e+01
-1.5070241561231406e+01 7.7894075561231261e+01
ITEM: ATOMS id type xs ys zs
2304 2 0.434562 0.510691 0.4991
2305 2 0.492152 0.433488 0.491675
2306 2 0.51967 0.510179 0.505591
2303 1 0.486518 0.497586 0.496224
2307 2 0.505362 0.540844 0.488006
2302 2 0.504135 0.393764 0.542
2301 2 0.507602 0.438628 0.539153
ITEM: TIMESTEP
242
ITEM: NUMBER OF ATOMS
7
ITEM: BOX BOUNDS pp pp pp
2.2395334915819021e-02 1.9677604665084189e+01
1.7279649275147690e-02 1.5182720350724850e+01
-1.5070241561231406e+01 7.7894075561231261e+01
ITEM: ATOMS id type xs ys zs
2304 2 0.432961 0.511506 0.498925
2305 2 0.489568 0.431119 0.491877
2306 2 0.518276 0.51009 0.505359
2303 1 0.485795 0.497679 0.496237
2307 2 0.504077 0.538587 0.487752
2302 2 0.504085 0.393495 0.542553
2301 2 0.509309 0.434813 0.539216
ITEM: TIMESTEP
243
ITEM: NUMBER OF ATOMS
7
ITEM: BOX BOUNDS pp pp pp
2.2395334915819021e-02 1.9677604665084189e+01
1.7279649275147690e-02 1.5182720350724850e+01
-1.5070241561231406e+01 7.7894075561231261e+01
ITEM: ATOMS id type xs ys zs
2304 2 0.432243 0.511932 0.498842
2305 2 0.488423 0.430163 0.491993
2306 2 0.517734 0.510085 0.505275
2303 1 0.485308 0.497442 0.496194
2307 2 0.503495 0.537578 0.487643
2302 2 0.503779 0.391739 0.542924
2301 2 0.510242 0.434638 0.5391
ITEM: TIMESTEP
244
ITEM: NUMBER OF ATOMS
7
ITEM: BOX BOUNDS pp pp pp
2.2395334915819021e-02 1.9677604665084189e+01
1.7279649275147690e-02 1.5182720350724850e+01
-1.5070241561231406e+01 7.7894075561231261e+01
ITEM: ATOMS id type xs ys zs
2304 2 0.431817 0.512377 0.498761
2305 2 0.4875 0.429704 0.492145
2306 2 0.517491 0.510157 0.505262
2303 1 0.484258 0.496475 0.496064
2307 2 0.503048 0.536828 0.487537
2302 2 0.50352 0.391333 0.543113
2301 2 0.510778 0.433191 0.539079
ITEM: TIMESTEP
245
ITEM: NUMBER OF ATOMS
7
ITEM: BOX BOUNDS pp pp pp
2.2395334915819021e-02 1.9677604665084189e+01
1.7279649275147690e-02 1.5182720350724850e+01
-1.5070241561231406e+01 7.7894075561231261e+01
ITEM: ATOMS id type xs ys zs
2304 2 0.431383 0.512836 0.498677
2305 2 0.486688 0.428924 0.492289
2306 2 0.517017 0.510054 0.50519
2303 1 0.483459 0.495965 0.496023
2307 2 0.502606 0.536089 0.487426
2302 2 0.503284 0.392026 0.543141
2301 2 0.510965 0.430565 0.539147
ITEM: TIMESTEP
246
ITEM: NUMBER OF ATOMS
7
ITEM: BOX BOUNDS pp pp pp
2.2395334915819021e-02 1.9677604665084189e+01
1.7279649275147690e-02 1.5182720350724850e+01
-1.5070241561231406e+01 7.7894075561231261e+01
ITEM: ATOMS id type xs ys zs
2304 2 0.430194 0.513917 0.498486
2305 2 0.484838 0.42674 0.492606
2306 2 0.515622 0.509613 0.504964
2303 1 0.482169 0.495427 0.495992
2307 2 0.501504 0.534216 0.48718
2302 2 0.501951 0.390362 0.543493
2301 2 0.511918 0.427638 0.538958
ITEM: TIMESTEP
247
ITEM: NUMBER OF ATOMS
7
ITEM: BOX BOUNDS pp pp pp
2.2395334915819021e-02 1.9677604665084189e+01
1.7279649275147690e-02 1.5182720350724850e+01
-1.5070241561231406e+01 7.7894075561231261e+01
ITEM: ATOMS id type xs ys zs
2304 2 0.429523 0.51443 0.498403
2305 2 0.483907 0.425861 0.492764
2306 2 0.514955 0.509378 0.504887
2303 1 0.481718 0.495113 0.495915
2307 2 0.500903 0.533143 0.487073
2302 2 0.50108 0.389015 0.543697
2301 2 0.512445 0.426695 0.538808
ITEM: TIMESTEP
248
ITEM: NUMBER OF ATOMS
7
ITEM: BOX BOUNDS pp pp pp
2.2395334915819021e-02 1.9677604665084189e+01
1.7279649275147690e-02 1.5182720350724850e+01
-1.5070241561231406e+01 7.7894075561231261e+01
ITEM: ATOMS id type xs ys zs
2304 2 0.429224 0.514644 0.49836
2305 2 0.483375 0.425571 0.492849
2306 2 0.514638 0.509256 0.504878
2303 1 0.481373 0.494809 0.495851
2307 2 0.500581 0.532518 0.487001
2302 2 0.500882 0.389388 0.54364
2301 2 0.512339 0.425049 0.538878
ITEM: TIMESTEP
249
ITEM: NUMBER OF ATOMS
7
ITEM: BOX BOUNDS pp pp pp
2.2395334915819021e-02 1.9677604665084189e+01
1.7279649275147690e-02 1.5182720350724850e+01
-1.5070241561231406e+01 7.7894075561231261e+01
ITEM: ATOMS id type xs ys zs
2304 2 0.428955 0.514763 0.498271
2305 2 0.482285 0.425277 0.492984
2306 2 0.514018 0.508977 0.504903
2303 1 0.48042 0.494211 0.495784
2307 2 0.500048 0.531307 0.486794
2302 2 0.499992 0.388994 0.543605
2301 2 0.51231 0.422961 0.538895
ITEM: TIMESTEP
250
ITEM: NUMBER OF ATOMS
7
ITEM: BOX BOUNDS pp pp pp
2.2395334915819021e-02 1.9677604665084189e+01
1.7279649275147690e-02 1.5182720350724850e+01
-1.5070241561231406e+01 7.7894075561231261e+01
ITEM: ATOMS id type xs ys zs
2304 2 0.428598 0.514834 0.498201
2305 2 0.481324 0.424822 0.493079
2306 2 0.513336 0.508677 0.504893
2303 1 0.479989 0.49408 0.495767
2307 2 0.499555 0.530186 0.486626
2302 2 0.498774 0.387479 0.54372
2301 2 0.512661 0.422382 0.538756
ITEM: TIMESTEP
251
ITEM: NUMBER OF ATOMS
7
ITEM: BOX BOUNDS pp pp pp
2.2395334915819021e-02 1.9677604665084189e+01
1.7279649275147690e-02 1.5182720350724850e+01
-1.5070241561231406e+01 7.7894075561231261e+01
ITEM: ATOMS id type xs ys zs
2304 2 0.428045 0.514913 0.498142
2305 2 0.480337 0.424168 0.493153
2306 2 0.512544 0.508369 0.504853
2303 1 0.479996 0.494254 0.495764
2307 2 0.499008 0.528978 0.486489
2302 2 0.497912 0.386941 0.543673
2301 2 0.512565 0.420893 0.538769
ITEM: TIMESTEP
252
ITEM: NUMBER OF ATOMS
7
ITEM: BOX BOUNDS pp pp pp
2.2395334915819021e-02 1.9677604665084189e+01
1.7279649275147690e-02 1.5182720350724850e+01
-1.5070241561231406e+01 7.7894075561231261e+01
ITEM: ATOMS id type xs ys zs
2304 2 0.427778 0.514941 0.498103
2305 2 0.479689 0.423957 0.493204
2306 2 0.512222 0.508332 0.504864
2303 1 0.479602 0.49389 0.495709
2307 2 0.498691 0.528259 0.48641
2302 2 0.497477 0.387001 0.543558
2301 2 0.512256 0.419516 0.538856
ITEM: TIMESTEP
253
ITEM: NUMBER OF ATOMS
7
ITEM: BOX BOUNDS pp pp pp
2.2395334915819021e-02 1.9677604665084189e+01
1.7279649275147690e-02 1.5182720350724850e+01
-1.5070241561231406e+01 7.7894075561231261e+01
ITEM: ATOMS id type xs ys zs
2304 2 0.427403 0.514966 0.498036
2305 2 0.47863 0.423597 0.493284
2306 2 0.511747 0.508338 0.504875
2303 1 0.478749 0.493151 0.495629
2307 2 0.498204 0.527165 0.486286
2302 2 0.496105 0.385709 0.543554
2301 2 0.512331 0.418664 0.538812
ITEM: TIMESTEP
254
ITEM: NUMBER OF ATOMS
7
ITEM: BOX BOUNDS pp pp pp
2.2395334915819021e-02 1.9677604665084189e+01
1.7279649275147690e-02 1.5182720350724850e+01
-1.5070241561231406e+01 7.7894075561231261e+01
ITEM: ATOMS id type xs ys zs
2304 2 0.426972 0.515001 0.497975
2305 2 0.477727 0.422858 0.493333
2306 2 0.511135 0.508238 0.504798
2303 1 0.478337 0.492998 0.495654
2307 2 0.497761 0.52629 0.486201
2302 2 0.494893 0.384541 0.543551
2301 2 0.512382 0.418063 0.538777
ITEM: TIMESTEP
255
ITEM: NUMBER OF ATOMS
7
ITEM: BOX BOUNDS pp pp pp
2.2395334915819021e-02 1.9677604665084189e+01
1.7279649275147690e-02 1.5182720350724850e+01
-1.5070241561231406e+01 7.7894075561231261e+01
ITEM: ATOMS id type xs ys zs
2304 2 0.426611 0.515055 0.497937
2305 2 0.477118 0.422322 0.493368
2306 2 0.510716 0.508158 0.504732
2303 1 0.478102 0.492874 0.495661
2307 2 0.497423 0.525719 0.486166
2302 2 0.494492 0.384574 0.543425
2301 2 0.511955 0.416846 0.538881
ITEM: TIMESTEP
256
ITEM: NUMBER OF ATOMS
7
ITEM: BOX BOUNDS pp pp pp
2.2395334915819021e-02 1.9677604665084189e+01
1.7279649275147690e-02 1.5182720350724850e+01
-1.5070241561231406e+01 7.7894075561231261e+01
ITEM: ATOMS id type xs ys zs
2304 2 0.425911 0.515209 0.497871
2305 2 0.476025 0.421611 0.493452
2306 2 0.510151 0.508065 0.504641
2303 1 0.477335 0.492101 0.495575
2307 2 0.496734 0.524767 0.486147
2302 2 0.493231 0.383709 0.543311
2301 2 0.511591 0.415532 0.538963
ITEM: TIMESTEP
257
ITEM: NUMBER OF ATOMS
7
ITEM: BOX BOUNDS pp pp pp
2.2395334915819021e-02 1.9677604665084189e+01
1.7279649275147690e-02 1.5182720350724850e+01
-1.5070241561231406e+01 7.7894075561231261e+01
ITEM: ATOMS id type xs ys zs
2304 2 0.425564 0.515266 0.497831
2305 2 0.475413 0.421213 0.493501
2306 2 0.509856 0.507973 0.504589
2303 1 0.476712 0.491616 0.49554
2307 2 0.496349 0.524316 0.486125
2302 2 0.492127 0.382554 0.543332
2301 2 0.51173 0.41544 0.538926
ITEM: TIMESTEP
258
ITEM: NUMBER OF ATOMS
7
ITEM: BOX BOUNDS pp pp pp
2.2395334915819021e-02 1.9677604665084189e+01
1.7279649275147690e-02 1.5182720350724850e+01
-1.5070241561231406e+01 7.7894075561231261e+01
ITEM: ATOMS id type xs ys zs
2304 2 0.425196 0.515287 0.497788
2305 2 0.474763 0.420691 0.493546
2306 2 0.509494 0.50775 0.504518
2303 1 0.476002 0.491259 0.495546
2307 2 0.495922 0.523931 0.486083
2302 2 0.491422 0.382118 0.543246
2301 2 0.511359 0.414555 0.539003
ITEM: TIMESTEP
259
ITEM: NUMBER OF ATOMS
7
ITEM: BOX BOUNDS pp pp pp
2.2395334915819021e-02 1.9677604665084189e+01
1.7279649275147690e-02 1.5182720350724850e+01
-1.5070241561231406e+01 7.7894075561231261e+01
ITEM: ATOMS id type xs ys zs
2304 2 0.42459 0.51533 0.497761
2305 2 0.474058 0.420115 0.493587
2306 2 0.50903 0.507337 0.504438
2303 1 0.475594 0.4911 0.495541
2307 2 0.495336 0.523507 0.486051
2302 2 0.490832 0.381889 0.543124
2301 2 0.510767 0.413413 0.539122
ITEM: TIMESTEP
260
ITEM: NUMBER OF ATOMS
7
ITEM: BOX BOUNDS pp pp pp
2.2395334915819021e-02 1.9677604665084189e+01
1.7279649275147690e-02 1.5182720350724850e+01
-1.5070241561231406e+01 7.7894075561231261e+01
ITEM: ATOMS id type xs ys zs
2304 2 0.423889 0.515357 0.497739
2305 2 0.473248 0.419616 0.493634
2306 2 0.508549 0.506834 0.504373
2303 1 0.475062 0.490799 0.495504
2307 2 0.494613 0.523028 0.486015
2302 2 0.489554 0.380665 0.543107
2301 2 0.51066 0.413062 0.539138
ITEM: TIMESTEP
261
ITEM: NUMBER OF ATOMS
7
ITEM: BOX BOUNDS pp pp pp
2.2395334915819021e-02 1.9677604665084189e+01
1.7279649275147690e-02 1.5182720350724850e+01
-1.5070241561231406e+01 7.7894075561231261e+01
ITEM: ATOMS id type xs ys zs
2304 2 0.423495 0.515267 0.497731
2305 2 0.472585 0.41955 0.493667
2306 2 0.508284 0.506422 0.504372
2303 1 0.47423 0.49026 0.495444
2307 2 0.493987 0.522692 0.485965
2302 2 0.488585 0.379773 0.543078
2301 2 0.510439 0.412653 0.539168
ITEM: TIMESTEP
262
ITEM: NUMBER OF ATOMS
7
ITEM: BOX BOUNDS pp pp pp
2.2395334915819021e-02 1.9677604665084189e+01
1.7279649275147690e-02 1.5182720350724850e+01
-1.5070241561231406e+01 7.7894075561231261e+01
ITEM: ATOMS id type xs ys zs
2304 2 0.423225 0.515158 0.497734
2305 2 0.472103 0.419447 0.493675
2306 2 0.508004 0.506062 0.50436
2303 1 0.473782 0.490094 0.495436
2307 2 0.493507 0.522451 0.485924
2302 2 0.488346 0.37979 0.542984
2301 2 0.509834 0.411743 0.539261
ITEM: TIMESTEP
263
ITEM: NUMBER OF ATOMS
7
ITEM: BOX BOUNDS pp pp pp
2.2395334915819021e-02 1.9677604665084189e+01
1.7279649275147690e-02 1.5182720350724850e+01
-1.5070241561231406e+01 7.7894075561231261e+01
ITEM: ATOMS id type xs ys zs
2304 2 0.422623 0.514931 0.497762
2305 2 0.471158 0.419091 0.493661
2306 2 0.507291 0.505284 0.50431
2303 1 0.473354 0.490172 0.495469
2307 2 0.492513 0.521965 0.48585
2302 2 0.487299 0.378892 0.542925
2301 2 0.509292 0.411 0.539319
ITEM: TIMESTEP
264
ITEM: NUMBER OF ATOMS
7
ITEM: BOX BOUNDS pp pp pp
2.2395334915819021e-02 1.9677604665084189e+01
1.7279649275147690e-02 1.5182720350724850e+01
-1.5070241561231406e+01 7.7894075561231261e+01
ITEM: ATOMS id type xs ys zs
2304 2 0.422254 0.514804 0.497796
2305 2 0.470582 0.419035 0.493646
2306 2 0.506964 0.504891 0.504313
2303 1 0.473 0.489966 0.495444
2307 2 0.49188 0.521695 0.485815
2302 2 0.486373 0.377903 0.542942
2301 2 0.509236 0.410998 0.539299
ITEM: TIMESTEP
265
ITEM: NUMBER OF ATOMS
7
ITEM: BOX BOUNDS pp pp pp
2.2395334915819021e-02 1.9677604665084189e+01
1.7279649275147690e-02 1.5182720350724850e+01
-1.5070241561231406e+01 7.7894075561231261e+01
ITEM: ATOMS id type xs ys zs
2304 2 0.421804 0.514624 0.497857
2305 2 0.46981 0.419036 0.493616
2306 2 0.506621 0.504437 0.50434
2303 1 0.47235 0.489505 0.495391
2307 2 0.491026 0.521396 0.485769
2302 2 0.485795 0.377521 0.542864
2301 2 0.508474 0.410055 0.539371
ITEM: TIMESTEP
266
ITEM: NUMBER OF ATOMS
7
ITEM: BOX BOUNDS pp pp pp
2.2395334915819021e-02 1.9677604665084189e+01
1.7279649275147690e-02 1.5182720350724850e+01
-1.5070241561231406e+01 7.7894075561231261e+01
ITEM: ATOMS id type xs ys zs
2304 2 0.421401 0.514401 0.49793
2305 2 0.469014 0.418733 0.493563
2306 2 0.506187 0.503955 0.504328
2303 1 0.471702 0.489327 0.495411
2307 2 0.490178 0.521197 0.485716
2302 2 0.485229 0.377138 0.54279
2301 2 0.507656 0.4091 0.539434
ITEM: TIMESTEP
267
ITEM: NUMBER OF ATOMS
7
ITEM: BOX BOUNDS pp pp pp
2.2395334915819021e-02 1.9677604665084189e+01
1.7279649275147690e-02 1.5182720350724850e+01
-1.5070241561231406e+01 7.7894075561231261e+01
ITEM: ATOMS id type xs ys zs
2304 2 0.421037 0.514247 0.497998
2305 2 0.468384 0.418424 0.493515
2306 2 0.505818 0.50357 0.5043
2303 1 0.471291 0.489228 0.495435
2307 2 0.489495 0.521059 0.485689
2302 2 0.484309 0.376147 0.542808
2301 2 0.507478 0.409046 0.539406
ITEM: TIMESTEP
268
ITEM: NUMBER OF ATOMS
7
ITEM: BOX BOUNDS pp pp pp
2.2395334915819021e-02 1.9677604665084189e+01
1.7279649275147690e-02 1.5182720350724850e+01
-1.5070241561231406e+01 7.7894075561231261e+01
ITEM: ATOMS id type xs ys zs
2304 2 0.420373 0.514068 0.498126
2305 2 0.467423 0.418058 0.493447
2306 2 0.505317 0.503003 0.504249
2303 1 0.470716 0.488834 0.495421
2307 2 0.488388 0.520869 0.485693
2302 2 0.483346 0.375249 0.542776
2301 2 0.506709 0.408329 0.539416
ITEM: TIMESTEP
269
ITEM: NUMBER OF ATOMS
7
ITEM: BOX BOUNDS pp pp pp
2.2395334915819021e-02 1.9677604665084189e+01
1.7279649275147690e-02 1.5182720350724850e+01
-1.5070241561231406e+01 7.7894075561231261e+01
ITEM: ATOMS id type xs ys zs
2304 2 0.420087 0.513936 0.498199
2305 2 0.466921 0.417933 0.493415
2306 2 0.505134 0.502698 0.504224
2303 1 0.470197 0.488493 0.495404
2307 2 0.487798 0.520825 0.485702
2302 2 0.483145 0.375216 0.542714
2301 2 0.505941 0.407481 0.539461
ITEM: TIMESTEP
270
ITEM: NUMBER OF ATOMS
7
ITEM: BOX BOUNDS pp pp pp
2.2395334915819021e-02 1.9677604665084189e+01
1.7279649275147690e-02 1.5182720350724850e+01
-1.5070241561231406e+01 7.7894075561231261e+01