2307
 Atoms. Timestep: 200
1 10.1393 5.90034 2.05254
1 10.9105 4.63917 2.49628
1 12.4104 4.92817 2.68144
1 13.1487 3.81932 3.42086
1 13.4756 2.59489 2.56767
1 14.4234 2.91349 1.41136
1 15.1951 1.69601 0.91144
1 14.3047 0.526969 0.504387
1 15.0403 14.7288 -0.448064
1 14.3528 13.373 -0.626107
1 14.5641 12.4101 0.542577
1 16.0044 11.901 0.648963
1 16.1899 10.9075 1.78995
1 17.5824 10.2574 1.78446
1 18.7293 11.2282 2.13918
1 0.454867 10.5438 1.99493
1 1.61935 11.5058 2.26215
1 2.92993 10.9052 1.75913
1 4.1552 11.779 1.99775
1 4.66199 11.7415 3.43961
1 6.11988 12.2022 3.55418
1 6.30408 13.7009 3.29871
1 7.78068 14.1092 3.39474
1 8.01861 0.450949 3.14925
1 9.49151 0.829156 3.04131
1 10.3092 0.66349 4.31813
1 9.83224 1.55837 5.46598
1 10.8786 1.67594 6.57689
1 10.3233 2.34836 7.83372
1 9.8034 3.7451 7.5937
2 10.342 6.71878 2.75747
2 10.52 6.2053 0.985244
2 9.05929 5.69917 2.02113
2 10.482 4.30755 3.45341
2 10.7388 3.86019 1.77165
2 12.4975 5.84418 3.24932
2 12.8494 5.18062 1.70975
2 14.0815 4.22349 3.79812
2 12.6188 3.5107 4.31388
2 12.5666 2.15855 2.17728
2 13.9294 1.83061 3.22293
2 13.8481 3.35634 0.585055
2 15.1496 3.6592 1.72449
2 15.9057 1.36473 1.70206
2 15.797 1.98972 0.0599546
2 13.9929 15.1478 1.40394
2 13.4252 0.892664 0.00534888
2 16.0693 14.6122 -0.119156
2 15.1275 0.0908488 -1.40716
2 13.2811 13.5163 -0.794425
2 14.7269 12.9149 -1.52762
2 13.9118 11.5474 0.402841
2 14.2465 12.887 1.48012
2 16.3277 11.4358 -0.29587
2 16.6804 12.736 0.806104
2 15.434 10.108 1.71551
2 15.9922 11.3886 2.71943
2 17.5875 9.44814 2.47882
2 17.7724 9.8047 0.803381
2 18.5861 11.5625 3.16501
2 18.7272 12.0892 1.45471
2 0.494795 9.69553 2.66739
2 0.532249 10.1886 0.965283
2 1.66161 11.7313 3.34453
2 1.45311 12.4541 1.76798
2 3.07364 9.89777 2.19257
2 2.83299 10.7312 0.691847
2 3.95392 12.7967 1.68356
2 4.93259 11.4145 1.3358
2 4.02793 12.319 4.08736
2 4.63781 10.6913 3.77517
2 6.74054 11.6217 2.85157
2 6.49425 11.9714 4.53302
2 5.9295 13.9729 2.30889
2 5.73036 14.2875 4.03271
2 8.34969 13.5253 2.67673
2 8.16416 13.8577 4.38208
2 7.51476 0.731778 2.20692
2 7.52939 1.03384 3.9189
2 9.58111 1.8397 2.7098
2 9.9312 0.226629 2.21743
2 10.2994 14.7566 4.65392
2 11.3454 0.876678 4.11477
2 8.87701 1.21331 5.85999
2 9.63382 2.55258 5.08172
2 11.2302 0.690159 6.85614
2 11.7698 2.16154 6.18619
2 11.0984 2.43692 8.63028
2 9.60149 1.73557 8.28265
2 9.64701 4.35391 8.57283
2 8.80944 3.77285 7.00445
2 10.5281 4.3421 7.08061
1 5.78962 13.3611 7.20613
1 5.95656 14.8789 7.1281
1 6.51764 0.333577 8.42028
1 6.35337 1.83663 8.42382
1 6.79978 2.49207 9.72811
1 6.25379 3.92488 9.83199
1 6.68513 4.64455 11.1091
1 5.89862 5.93991 11.3006
1 6.29181 6.73471 12.5455
1 6.11538 5.93373 13.8447
1 5.79136 6.85782 15.0309
1 4.31651 7.24845 15.1048
1 3.41843 6.11698 15.6364
1 1.97978 6.55403 15.8886
1 1.16087 6.80575 14.6215
1 19.3206 7.08422 14.8821
1 18.5335 5.81267 15.2354
1 17.1181 6.1045 15.7577
1 16.1337 6.58536 14.6836
1 14.7338 6.72026 15.273
1 13.655 7.15905 14.2787
1 13.4118 6.11963 13.1554
1 12.1595 6.42263 12.313
1 10.8274 6.13994 13.0196
1 10.5938 4.67601 13.4253
1 10.6512 3.69591 12.2581
1 10.0664 2.32781 12.5973
1 10.8676 1.60167 13.7002
1 10.4665 0.140776 13.8946
1 9.00347 15.1164 14.2932
2 5.11236 13.0827 8.04199
2 5.36562 12.9896 6.30181
2 6.7541 12.8945 7.31138
2 6.63452 15.1115 6.29912
2 4.99211 0.144106 6.90413
2 7.56645 0.0759643 8.52863
2 5.97585 15.071 9.27408
2 6.83817 2.27888 7.58267
2 5.26349 2.06225 8.25819
2 7.87945 2.46787 9.80673
2 6.40828 1.91954 10.5691
2 6.58807 4.51138 8.96885
2 5.17221 3.9013 9.77691
2 7.75172 4.86691 11.0551
2 6.51246 3.9981 11.9551
2 6.03538 6.55936 10.3842
2 4.85735 5.69756 11.3557
2 5.69575 7.5724 12.562
2 7.37801 7.08984 12.4615
2 5.32391 5.18371 13.7265
2 7.02237 5.38634 14.0372
2 6.40123 7.73556 14.9631
2 6.0788 6.35001 15.9902
2 4.23378 8.08474 15.7851
2 3.97486 7.60892 14.1412
2 3.8288 5.7246 16.5527
2 3.42595 5.24799 14.958
2 1.47479 5.72899 16.4545
2 1.93703 7.38987 16.5404
2 1.27348 5.97302 13.8894
2 1.58339 7.64891 14.0853
2 19.2291 7.80772 15.6783
2 18.863 7.56318 14.0122
2 19.0374 5.27563 16.0086
2 18.4955 5.11439 14.3731
2 16.7141 5.19943 16.1908
2 17.1674 6.80467 16.5896
2 16.1334 5.85057 13.8659
2 16.4509 7.52443 14.2348
2 14.4328 5.78027 15.7292
2 14.77 7.45396 16.0687
2 13.941 8.11087 13.83
2 12.7258 7.29444 14.857
2 14.2822 6.14602 12.4891
2 13.3627 5.12376 13.5689
2 12.2164 5.80956 11.3758
2 12.1988 7.45429 12.0295
2 10.7169 6.79238 13.9217
2 10.0214 6.45083 12.3655
2 9.6488 4.58299 13.9362
2 11.3374 4.36679 14.2178
2 10.0901 4.10205 11.4389
2 11.69 3.59956 11.8651
2 10.0346 1.69841 11.7055
2 9.02453 2.38379 12.8923
2 11.9139 1.62289 13.4508
2 10.7628 2.1254 14.6546
2 11.0705 14.872 14.6672
2 10.6891 14.7375 12.9679
2 8.71917 0.583105 15.1463
2 8.83285 14.086 14.5911
2 8.30956 0.188682 13.5046
1 13.3927 14.6587 -4.34129
1 13.6457 0.716219 -5.25307
1 15.136 0.944269 -5.55631
1 15.7618 14.9568 -6.3809
1 17.2234 0.0435088 -6.80206
1 17.4653 1.291 -7.65201
1 16.5648 1.36365 -8.89055
1 17.1455 2.22211 -10.0196
1 17.4113 3.6693 -9.60493
1 17.7373 4.53971 -10.8159
1 18.4349 5.85742 -10.4663
1 17.6164 6.77457 -9.55404
1 18.2723 8.16274 -9.42712
1 17.5719 9.05902 -8.40283
1 18.0138 10.5276 -8.49307
1 19.5268 10.7292 -8.33374
1 0.256478 12.2045 -8.26165
1 1.77873 12.4102 -8.25887
1 2.19873 13.8811 -8.42711
1 1.71291 14.8185 -7.32606
1 2.30603 14.4885 -5.94603
1 1.83274 0.279551 -4.84403
1 2.32053 1.73804 -4.99006
1 1.90755 2.62982 -3.8119
1 2.49825 2.23701 -2.45906
1 4.0337 2.34105 -2.42258
1 4.64048 1.99789 -1.05245
1 4.49682 0.533189 -0.640345
1 5.13482 14.7003 -1.62973
1 5.22143 13.289 -1.05295
2 13.9995 14.6943 -3.44862
2 12.3691 14.624 -4.02204
2 13.6144 13.7174 -4.84301
2 13.0984 0.582809 -6.18582
2 13.2654 1.61247 -4.78338
2 15.7037 1.09809 -4.62957
2 15.2225 1.88136 -6.08613
2 15.7365 14.053 -5.77749
2 15.1348 14.7619 -7.25454
2 17.5701 14.3271 -7.30845
2 17.8838 0.0991177 -5.90567
2 17.3645 2.18577 -7.05345
2 18.522 1.26777 -7.96857
2 15.561 1.70465 -8.62545
2 16.4252 0.334804 -9.27471
2 18.0457 1.74358 -10.3714
2 16.4241 2.19761 -10.8448
2 18.2463 3.69132 -8.90683
2 16.5599 4.0798 -9.08356
2 18.3835 3.97492 -11.4978
2 16.8333 4.73055 -11.3643
2 18.6554 6.39195 -11.3894
2 19.4019 5.6409 -10.0021
2 16.6119 6.8871 -9.96407
2 17.5285 6.3195 -8.57596
2 18.2843 8.66018 -10.4017
2 19.331 8.04265 -9.14643
2 16.486 9.02007 -8.57005
2 17.7704 8.68935 -7.41321
2 17.4675 11.0814 -7.72123
2 17.6989 10.9479 -9.4459
2 0.250665 10.2129 -7.46078
2 0.39152 10.2815 -9.18367
2 19.4464 12.6408 -7.38532
2 19.446 12.7501 -9.13823
2 2.21131 11.9896 -7.3433
2 2.21614 11.8494 -9.06014
2 1.82477 14.2282 -9.38796
2 3.29479 13.9468 -8.50868
2 1.97308 0.680181 -7.60487
2 0.625942 14.8138 -7.27717
2 3.38677 14.4907 -5.96718
2 2.00516 13.4878 -5.63542
2 0.731155 0.272501 -4.76633
2 2.20222 15.0326 -3.90654
2 1.89736 2.15546 -5.90939
2 3.37664 1.73834 -5.13482
2 2.19436 3.66585 -4.02371
2 0.819851 2.65014 -3.71243
2 2.16554 1.25571 -2.18981
2 2.05854 2.90111 -1.701
2 4.48491 1.70939 -3.17908
2 4.3238 3.37588 -2.67739
2 4.19645 2.64681 -0.295325
2 5.70225 2.24035 -1.05973
2 4.96305 0.428646 0.32602
2 3.43456 0.276714 -0.483526
2 6.14904 15.0525 -1.88219
2 4.58643 14.6786 -2.5701
2 5.77693 13.2857 -0.13914
2 5.73222 12.6283 -1.73176
2 4.23919 12.8963 -0.863175
1 18.025 14.8027 -2.45279
1 18.9257 13.6116 -2.09653
1 19.2044 12.743 -3.32701
1 0.44424 11.5227 -3.03542
1 1.78716 11.8708 -2.39057
1 2.83565 10.7685 -2.61749
1 3.49552 10.8657 -3.99034
1 4.48705 9.73134 -4.22696
1 5.26056 9.87018 -5.54945
1 6.67548 10.4314 -5.39059
1 6.7247 11.8169 -4.76181
1 8.08932 12.5174 -4.88947
1 9.27677 11.7454 -4.29174
1 9.1357 11.4314 -2.8006
1 10.4677 10.9848 -2.18821
1 10.3229 10.2876 -0.846262
1 9.70946 11.1658 0.257794
1 9.63068 10.4652 1.61514
1 10.9719 10.3619 2.36665
1 11.4289 11.7023 2.94096
1 12.658 11.5546 3.84082
1 13.0298 12.8746 4.49036
1 14.3381 12.8123 5.28533
1 14.3496 11.8256 6.45527
1 13.2492 12.1089 7.48535
1 13.5452 11.4953 8.86808
1 13.6929 9.97747 8.83944
1 13.8368 9.37625 10.2583
1 15.0754 9.8529 11.0354
1 16.4028 9.5417 10.3225
2 17.0657 14.459 -2.80735
2 17.8739 0.299317 -1.59265
2 18.471 0.276995 -3.24787
2 0.230121 14.0176 -1.6935
2 18.4746 13.0075 -1.28873
2 0.0335602 13.3485 -4.09006
2 18.2732 12.4136 -3.76128
2 19.5511 10.8277 -2.38451
2 0.599521 11.0064 -3.97843
2 1.61448 12.0155 -1.31964
2 2.14809 12.8114 -2.76508
2 3.6013 10.8507 -1.84576
2 2.37561 9.79994 -2.47238
2 4.00536 11.8439 -4.08552
2 2.74639 10.8489 -4.75788
2 5.18075 9.65495 -3.39668
2 3.9127 8.78429 -4.22859
2 4.68129 10.4616 -6.24742
2 5.3455 8.87155 -6.00655
2 7.27942 9.7276 -4.80587
2 7.14388 10.4775 -6.36882
2 6.44212 11.7558 -3.71015
2 5.99061 12.4562 -5.23007
2 8.28782 12.6961 -5.93733
2 8.02264 13.4874 -4.40678
2 10.1843 12.3512 -4.42164
2 9.42882 10.7798 -4.86659
2 8.76748 12.3017 -2.2769
2 8.38081 10.6457 -2.67368
2 11.138 11.8098 -2.08234
2 10.9709 10.289 -2.88863
2 9.7628 9.37393 -0.954331
2 11.3205 9.94319 -0.526121
2 8.69653 11.4102 -0.035308
2 10.2226 12.1614 0.345564
2 8.89672 10.9608 2.2425
2 9.20369 9.48048 1.4658
2 11.7458 9.93014 1.73738
2 10.8387 9.67846 3.19834
2 11.6629 12.3916 2.13714
2 10.6128 12.1531 3.50602
2 13.4787 11.1616 3.25527
2 12.4343 10.8 4.60646
2 13.1487 13.6486 3.72711
2 12.2217 13.1877 5.12952
2 14.5741 13.7971 5.67298
2 15.1695 12.5871 4.62517
2 14.2667 10.8118 6.07534
2 15.3187 11.9005 6.95015
2 12.2633 11.7487 7.12975
2 13.1056 13.1735 7.56965
2 14.4485 11.9527 9.28083
2 12.7793 11.7746 9.57061
2 14.5184 9.69536 8.23728
2 12.8048 9.53335 8.37514
2 12.9508 9.60098 10.8243
2 13.8642 8.27136 10.1794
2 15.0697 9.36587 11.9789
2 15.0122 10.9396 11.2345
2 16.4665 8.48644 10.0328
2 17.2466 9.73742 11.0051
2 16.5105 10.1611 9.43829
1 0.181686 1.99924 1.655
1 1.17435 2.73524 2.57107
1 1.4885 1.92921 3.83622
1 2.37264 2.6793 4.83627
1 3.73452 3.09695 4.26851
1 4.71454 3.47518 5.37795
1 6.11335 3.87461 4.88031
1 6.16612 5.16419 4.04359
1 5.56267 6.40396 4.72757
1 6.20945 6.79182 6.05855
1 7.59499 7.42594 5.89127
1 8.26071 7.72489 7.24496
1 9.22406 8.9245 7.20179
1 10.36 8.79188 6.19275
1 11.3145 7.64136 6.50082
1 12.5718 7.7317 5.62282
1 13.482 6.50556 5.77801
1 14.1663 6.39301 7.13178
1 13.5753 5.26177 7.97188
1 14.2021 5.16776 9.35699
1 15.7147 4.91245 9.34115
1 16.2465 4.48921 10.7009
1 17.6656 3.90984 10.648
1 18.7177 4.89395 10.1049
1 18.8681 6.15172 10.9777
1 0.606731 6.8158 10.8644
1 0.799452 7.75392 9.66695
1 0.923977 7.07131 8.29257
1 2.01295 5.98855 8.18671
1 3.39223 6.51711 8.52508
2 0.577743 1.00311 1.36569
2 18.832 1.85164 2.14196
2 19.6428 2.55788 0.735419
2 2.08272 2.90343 2.00615
2 0.782951 3.71456 2.85075
2 1.97649 0.971445 3.56077
2 0.567356 1.66173 4.31025
2 1.85179 3.56956 5.21009
2 2.51119 2.05904 5.71764
2 3.62069 3.93024 3.57629
2 4.17719 2.28421 3.67478
2 4.31604 4.24382 6.02964
2 4.8549 2.60118 6.0155
2 6.51167 3.05954 4.26398
2 6.7759 3.93776 5.71842
2 7.2105 5.35872 3.76627
2 5.66353 5.00142 3.09679
2 4.47652 6.22465 4.89776
2 5.59 7.23388 4.04889
2 5.57996 7.48403 6.55379
2 6.23898 5.92711 6.75799
2 7.48914 8.34967 5.31478
2 8.2639 6.80065 5.30556
2 7.43138 7.9918 7.95767
2 8.76914 6.82424 7.58734
2 9.62285 9.09479 8.18157
2 8.59451 9.83424 6.98989
2 10.0018 8.72138 5.20255
2 10.9373 9.74664 6.21563
2 10.8207 6.66351 6.315
2 11.6409 7.66754 7.55941
2 12.2482 7.82197 4.60397
2 13.1129 8.62564 5.8786
2 14.247 6.53811 4.98617
2 12.9354 5.59936 5.56452
2 15.2039 6.20507 6.9632
2 14.1278 7.3636 7.64902
2 13.6795 4.30396 7.46821
2 12.5018 5.4388 8.06465
2 13.9714 6.05208 9.93379
2 13.7202 4.32726 9.8852
2 16.2147 5.79988 8.97657
2 15.908 4.14474 8.62664
2 16.1991 5.33338 11.3948
2 15.6055 3.72334 11.1326
2 17.6706 3.00137 10.0297
2 17.9636 3.5934 11.6448
2 19.6611 4.38435 10.0549
2 18.4614 5.17661 9.08608
2 18.7563 5.86096 12.0173
2 18.0632 6.87227 10.7793
2 0.685679 7.43224 11.7429
2 1.40565 6.08872 10.9324
2 1.68968 8.32282 9.83018
2 19.6159 8.48763 9.64781
2 19.5515 6.66403 7.99857
2 1.15843 7.83447 7.55695
2 2.00945 5.57309 7.1661
2 1.77929 5.1487 8.81715
2 3.52504 6.74264 9.63775
2 3.63348 7.40608 8.01195
2 4.19696 5.7492 8.32275
1 10.0814 6.03351 17.2281
1 10.8016 4.81738 17.8467
1 12.3207 4.87459 17.6177
1 13.0744 3.75629 18.3353
1 13.372 2.5312 17.4686
1 14.2957 2.8479 16.2916
1 15.152 1.66934 15.838
1 14.35 0.415885 15.5094
1 15.128 14.6381 14.5705
1 14.4413 13.2911 14.334
1 14.6219 12.2938 15.4789
1 16.0508 11.7514 15.5744
1 16.2181 10.7266 16.689
1 17.6056 10.0664 16.6745
1 18.756 11.0098 17.0918
1 0.48753 10.3449 16.9041
1 1.64579 11.2865 17.2588
1 2.97167 10.7192 16.7564
1 4.17695 11.624 16.9923
1 4.66402 11.6245 18.4428
1 6.11396 12.1092 18.5778
1 6.28629 13.6078 18.308
1 7.75732 14.0305 18.4359
1 7.99283 0.372391 18.1833
1 9.46632 0.745983 18.0691
1 10.2796 0.622059 19.3533
1 9.80824 1.562 20.4676
1 10.8446 1.68868 21.5862
1 10.2806 2.37451 22.8319
1 9.77466 3.77305 22.5729
2 10.5128 6.96237 17.638
2 10.2768 6.02932 16.0722
2 9.0103 5.99291 17.4446
2 10.5907 4.81335 18.9238
2 10.3763 3.92954 17.4311
2 12.6829 5.83611 17.9688
2 12.493 4.9007 16.5377
2 14.0196 4.15132 18.6902
2 12.5671 3.4494 19.2424
2 12.4567 2.08725 17.1006
2 13.8483 1.76812 18.1091
2 13.6974 3.22037 15.4474
2 14.9729 3.64859 16.5704
2 15.8998 1.43946 16.6295
2 15.7084 1.9703 14.9582
2 14.0988 15.0533 16.4367
2 13.4311 0.695029 15.0268
2 16.1424 14.5158 14.943
2 15.2548 15.1691 13.6263
2 13.3744 13.4432 14.1463
2 14.8344 12.8588 13.4262
2 13.9544 11.4474 15.3147
2 14.3054 12.7528 16.4263
2 16.3614 11.2983 14.6193
2 16.7414 12.5695 15.7506
2 15.4536 9.93707 16.5887
2 16.0177 11.183 17.6321
2 17.5969 9.22288 17.3334
2 17.7982 9.65742 15.6737
2 18.6104 11.2685 18.1404
2 18.7534 11.9148 16.4706
2 0.525285 9.44621 17.5049
2 0.573841 10.0756 15.8485
2 1.66067 11.4459 18.3541
2 1.48808 12.2623 16.8196
2 3.13705 9.7191 17.1953
2 2.88147 10.5355 15.69
2 3.95829 12.6337 16.663
2 4.9697 11.2677 16.3443
2 4.01064 12.2038 19.0704
2 4.64912 10.581 18.7993
2 6.75712 11.5287 17.8979
2 6.46931 11.8986 19.5682
2 5.93122 13.8626 17.3056
2 5.69196 14.1979 19.0231
2 8.34701 13.4424 17.7387
2 8.12071 13.7913 19.4341
2 7.48689 0.6463 17.2401
2 7.50317 0.962132 18.9479
2 9.55363 1.73888 17.7015
2 9.91466 0.117261 17.2722
2 10.2624 14.7282 19.7279
2 11.3187 0.818828 19.1449
2 8.84285 1.24924 20.8638
2 9.63549 2.54923 20.0525
2 11.1883 0.704493 21.8807
2 11.7412 2.16682 21.1983
2 11.0497 2.46387 23.6341
2 9.55157 1.76998 23.2795
2 9.62054 4.39423 23.5453
2 8.78346 3.79823 21.9801
2 10.507 4.35253 22.0582
1 5.81623 13.3716 22.2579
1 5.95823 14.893 22.1853
1 6.51528 0.349171 23.4784
1 6.33501 1.85037 23.4918
1 6.7815 2.49839 24.8
1 6.22795 3.92713 24.922
1 6.66998 4.63948 26.2002
1 5.89018 5.93732 26.4029
1 6.29048 6.7225 27.6518
1 6.11061 5.91716 28.9477
1 5.79652 6.83857 30.1388
1 4.32468 7.23922 30.2182
1 3.42159 6.11272 30.7517
1 1.98434 6.55613 31.0013
1 1.16558 6.80123 29.7326
1 19.3255 7.08149 29.9924
1 18.5396 5.81211 30.3566
1 17.1256 6.10711 30.8803
1 16.1418 6.58593 29.8051
1 14.741 6.71881 30.3922
1 13.6646 7.1557 29.3946
1 13.4278 6.11561 28.2705
1 12.1807 6.41742 27.4209
1 10.8445 6.14439 28.1242
1 10.6038 4.68429 28.5397
1 10.6535 3.69754 27.3779
1 10.0672 2.33237 27.7267
1 10.8735 1.60813 28.8273
1 10.4768 0.145852 29.0206
1 9.01384 15.1162 29.4176
2 5.14355 13.0794 23.0928
2 5.40239 12.9952 21.3504
2 6.78846 12.9216 22.3662
2 6.628 15.1385 21.3537
2 4.98678 0.145062 21.9686
2 7.56716 0.103372 23.5828
2 5.98126 15.0763 24.3321
2 6.81372 2.30419 22.6524
2 5.2425 2.06702 23.3314
2 7.86214 2.48128 24.873
2 6.39855 1.91502 25.6379
2 6.55006 4.52171 24.06
2 5.14603 3.89761 24.8784
2 7.73737 4.85726 26.1401
2 6.50023 3.98971 27.0443
2 6.02758 6.56184 25.4901
2 4.84754 5.70055 26.4583
2 5.70148 7.56455 27.6737
2 7.37873 7.07121 27.5677
2 5.31302 5.17403 28.8274
2 7.0138 5.36169 29.1353
2 6.41259 7.71213 30.0731
2 6.08296 6.32474 31.0951
2 4.24922 8.07555 30.8995
2 3.98151 7.60244 29.2561
2 3.82965 5.72105 31.6694
2 3.42617 5.24177 30.0758
2 1.47775 5.73668 31.5734
2 1.94465 7.39669 31.6471
2 1.27722 5.96442 29.0049
2 1.58864 7.64106 29.1918
2 19.234 7.81148 30.7828
2 18.8668 7.553 29.119
2 19.0451 5.27949 31.1318
2 18.4995 5.109 29.4982
2 16.7209 5.20388 31.3166
2 17.1767 6.80985 31.7099
2 16.1436 5.85129 28.9873
2 16.4582 7.52552 29.357
2 14.4402 5.77852 30.8479
2 14.7745 7.45289 31.1877
2 13.9503 8.10842 28.9472
2 12.7337 7.28904 29.9706
2 14.3014 6.14147 27.6082
2 13.3761 5.11992 28.6842
2 12.2411 5.79886 26.487
2 12.2259 7.44809 27.1318
2 10.7326 6.80251 29.0207
2 10.0419 6.4531 27.4649
2 9.6591 4.5989 29.0526
2 11.3463 4.37536 29.3332
2 10.0891 4.10079 26.5591
2 11.6903 3.59669 26.9805
2 10.0282 1.69905 26.838
2 9.02746 2.39156 28.0282
2 11.919 1.63252 28.5754
2 10.7695 2.13071 29.7825
2 11.081 14.8782 29.7935
2 10.7023 14.7446 28.0935
2 8.72653 0.580867 30.2712
2 8.84653 14.0849 29.7141
2 8.31978 0.186986 28.6286
1 13.313 14.9782 10.8726
1 13.5979 0.921331 9.83662
1 15.0855 1.04083 9.47185
1 15.6032 15.0079 8.63844
1 17.0451 15.1583 8.12297
1 17.3018 1.23226 7.24521
1 16.3155 1.37293 6.07751
1 16.8541 2.23738 4.92947
1 17.2181 3.65838 5.35689
1 17.5509 4.52363 4.14653
1 18.337 5.7905 4.49029
1 17.5887 6.71163 5.45326
1 18.2321 8.10316 5.54636
1 17.5991 8.95405 6.6482
1 17.9745 10.4365 6.53399
1 19.484 10.6986 6.55645
1 0.139411 12.1888 6.6096
1 1.64508 12.4861 6.55055
1 1.95932 13.9886 6.43165
1 1.52948 14.8304 7.63006
1 2.29091 14.4995 8.92541
1 1.86704 0.212312 10.1105
1 2.29195 1.69427 10.0166
1 1.82828 2.52919 11.218
1 2.44255 2.1485 12.5611
1 3.95716 2.39838 12.611
1 4.59192 2.06494 13.9692
1 4.46262 0.600532 14.3877
1 5.00414 14.7575 13.3513
1 5.02305 13.3279 13.8919
2 13.8699 15.1357 11.7838
2 12.2742 14.9657 11.1431
2 13.5747 13.9867 10.5006
2 13.0205 0.724887 8.93304
2 13.2725 1.87773 10.2266
2 15.7062 1.17931 10.3663
2 15.2059 1.95964 8.91492
2 15.568 14.1188 9.26589
2 14.9138 14.8329 7.80914
2 17.3034 14.2703 7.59631
2 17.767 0.0343925 8.97299
2 17.3159 2.12837 7.84026
2 18.3273 1.14174 6.84566
2 15.3477 1.74931 6.42206
2 16.1047 0.366503 5.67456
2 17.6978 1.72521 4.49787
2 16.075 2.2707 4.15462
2 18.0791 3.6268 6.02072
2 16.4098 4.10404 5.91812
2 18.1308 3.92896 3.4267
2 16.6373 4.78307 3.64338
2 18.5419 6.33842 3.57139
2 19.31 5.5184 4.911
2 16.5636 6.83095 5.09552
2 17.5693 6.25539 6.43515
2 18.1454 8.61973 4.59417
2 19.3059 8.00475 5.71755
2 16.5044 8.8755 6.58029
2 17.9027 8.57915 7.60919
2 17.4822 10.9632 7.35865
2 17.5538 10.8521 5.62009
2 0.302958 10.1983 7.39059
2 0.294551 10.2804 5.66281
2 19.3447 12.5979 7.50776
2 19.2605 12.7051 5.75269
2 2.14639 12.0603 7.42969
2 2.07783 11.9874 5.70787
2 1.47404 14.3622 5.5324
2 3.03708 14.1259 6.24941
2 1.67608 0.721265 7.38292
2 0.459757 14.7359 7.79239
2 3.36164 14.5982 8.7911
2 2.09834 13.466 9.21641
2 0.772866 0.159518 10.2607
2 2.31517 14.9405 11.002
2 1.8608 2.12825 9.10797
2 3.34949 1.74385 9.88302
2 2.05109 3.58645 11.0354
2 0.742566 2.47528 11.3218
2 2.20089 1.13078 12.7882
2 1.93755 2.74464 13.335
2 4.46174 1.83626 11.8375
2 4.15099 3.46202 12.3861
2 4.15422 2.71154 14.7326
2 5.65079 2.31727 13.9392
2 4.99798 0.485873 15.3175
2 3.4093 0.364342 14.6184
2 6.022 15.0581 13.0583
2 4.41505 14.7885 12.4367
2 5.62895 13.2663 14.7707
2 5.44407 12.6542 13.1682
2 4.02951 12.9939 14.1274
1 18 14.7206 12.4175
1 18.8479 13.5012 12.8073
1 19.1582 12.622 11.5903
1 0.350413 11.3772 11.9217
1 1.67573 11.697 12.6163
1 2.7425 10.6171 12.3712
1 3.42533 10.7651 11.0131
1 4.49875 9.70297 10.8039
1 5.28683 9.89941 9.49874
1 6.71237 10.4141 9.70507
1 6.79916 11.7326 10.4651
1 8.16376 12.4313 10.3368
1 9.35514 11.6072 10.8494
1 9.23588 11.2155 12.3233
1 10.5613 10.7027 12.8919
1 10.4166 10.011 14.2365
1 9.81166 10.9008 15.3366
1 9.76067 10.2275 16.708
1 11.1102 10.1895 17.4473
1 11.5239 11.5558 17.9931
1 12.758 11.4594 18.892
1 13.108 12.8006 19.5076
1 14.411 12.7663 20.3133
1 14.4196 11.8078 21.5079
1 13.306 12.0997 22.5213
1 13.5841 11.4956 23.9124
1 13.722 9.9754 23.9019
1 13.8381 9.3903 25.3308
1 15.0667 9.86761 26.1235
1 16.404 9.54078 25.4373
2 17.0457 14.4095 12.0218
2 17.8306 0.2184 13.273
2 18.4952 0.188615 11.6462
2 0.143934 13.874 13.259
2 18.3415 12.9099 13.5913
2 0.0370476 13.2105 10.8497
2 18.2389 12.3135 11.1167
2 19.4137 10.6989 12.554
2 0.52863 10.8492 10.989
2 1.47337 11.7929 13.688
2 2.03932 12.6569 12.2968
2 3.49203 10.6964 13.1581
2 2.30009 9.63643 12.4803
2 3.87961 11.772 10.9336
2 2.69615 10.7028 10.2282
2 5.17016 9.69215 11.6413
2 4.00203 8.71452 10.803
2 4.72882 10.5491 8.83494
2 5.34744 8.93039 8.98473
2 7.30665 9.64381 10.2127
2 7.17132 10.5497 8.73394
2 6.5603 11.58 11.5152
2 6.04596 12.4225 10.0995
2 8.33419 12.6725 9.29651
2 8.12175 13.3709 10.8793
2 10.2717 12.2043 10.7312
2 9.47781 10.6784 10.2179
2 8.90113 12.0704 12.8918
2 8.46361 10.4431 12.4277
2 11.2707 11.4962 12.9836
2 11.0125 9.99059 12.1759
2 9.84402 9.10577 14.1331
2 11.4115 9.65302 14.5513
2 8.78911 11.1238 15.0592
2 10.3158 11.9041 15.3962
2 9.01512 10.7131 17.3283
2 9.36506 9.2269 16.5834
2 11.8936 9.77358 16.8199
2 11.01 9.51697 18.2922
2 11.7354 12.2369 17.1763
2 10.6958 11.992 18.5521
2 13.5841 11.0651 18.315
2 12.5489 10.7212 19.678
2 13.2246 13.5555 18.725
2 12.2911 13.122 20.1318
2 14.6417 13.7619 20.6776
2 15.2475 12.5258 19.6633
2 14.3541 10.7852 21.1525
2 15.3817 11.9077 22.0119
2 12.3249 11.7365 22.1568
2 13.1609 13.1648 22.5947
2 14.4847 11.9519 24.3319
2 12.8115 11.7863 24.6034
2 14.5557 9.68235 23.3167
2 12.8402 9.5297 23.4286
2 12.9438 9.62794 25.8792
2 13.8596 8.28465 25.2661
2 15.0421 9.39094 27.0721
2 15.007 10.957 26.3099
2 16.4672 8.48154 25.1621
2 17.2375 9.74071 26.1313
2 16.5308 10.1481 24.5473
1 0.234289 2.2764 16.5366
1 1.17854 2.96375 17.5381
1 1.48481 2.06661 18.7418
1 2.36608 2.73801 19.7991
1 3.73986 3.17061 19.2711
1 4.70376 3.51363 20.4051
1 6.12139 3.873 19.934
1 6.21541 5.12847 19.0509
1 5.60024 6.39949 19.6659
1 6.20176 6.82411 21.0063
1 7.60144 7.4374 20.8691
1 8.25186 7.70935 22.2369
1 9.24223 8.88774 22.2239
1 10.3788 8.75277 21.2139
1 11.322 7.58702 21.506
1 12.5513 7.63733 20.5839
1 13.4724 6.41929 20.7553
1 14.164 6.33669 22.11
1 13.5652 5.23911 22.9912
1 14.1893 5.18808 24.3817
1 15.7045 4.93838 24.3799
1 16.2295 4.52802 25.7477
1 17.6436 3.93287 25.7094
1 18.7135 4.90414 25.1776
1 18.8766 6.15652 26.0567
1 0.617342 6.81641 25.9368
1 0.809431 7.7531 24.7372
1 0.935345 7.0691 23.3629
1 2.02401 5.98552 23.2624
1 3.40745 6.51789 23.5805
2 0.660861 1.31018 16.1951
2 18.8708 2.07906 16.9761
2 0.0828231 2.89381 15.6518
2 2.09381 3.20554 17.0118
2 0.747842 3.90368 17.8901
2 1.97387 1.13057 18.4021
2 0.558514 1.76825 19.1877
2 1.85412 3.60961 20.2265
2 2.48457 2.05748 20.6391
2 3.64139 4.02696 18.6069
2 4.1852 2.37614 18.6547
2 4.31565 4.29719 21.0449
2 4.80589 2.63774 21.0465
2 6.52515 3.03232 19.3562
2 6.76107 3.95835 20.7865
2 7.26006 5.30015 18.8067
2 5.75006 4.93288 18.0944
2 4.50694 6.23624 19.8031
2 5.66326 7.20268 18.9581
2 5.56093 7.53986 21.4609
2 6.19936 5.98061 21.7335
2 7.51891 8.37078 20.3045
2 8.27141 6.81002 20.2863
2 7.41763 7.98559 22.9422
2 8.73643 6.79606 22.5781
2 9.64197 9.02541 23.2101
2 8.63241 9.81527 22.0313
2 10.0157 8.70251 20.2251
2 10.9682 9.69906 21.2477
2 10.8096 6.62002 21.3511
2 11.6807 7.62744 22.5527
2 12.1962 7.68892 19.5722
2 13.0993 8.5378 20.7928
2 14.2362 6.45218 19.9624
2 12.9357 5.50367 20.5519
2 15.1967 6.12487 21.9413
2 14.1448 7.32266 22.5963
2 13.6609 4.2646 22.5191
2 12.4941 5.42492 23.0772
2 13.9504 6.08579 24.9351
2 13.7082 4.35915 24.9286
2 16.2054 5.82263 24.0092
2 15.9065 4.16313 23.6764
2 16.1859 5.38091 26.4312
2 15.5807 3.77279 26.1866
2 17.6446 3.02372 25.0897
2 17.9274 3.61214 26.7091
2 19.6515 4.38208 25.1312
2 18.4641 5.19426 24.16
2 18.7713 5.86081 27.0958
2 18.0738 6.88174 25.8681
2 0.701771 7.43228 26.8148
2 1.41427 6.08704 26.0038
2 1.69941 8.32275 24.8997
2 19.6259 8.48685 24.7175
2 19.5635 6.66148 23.0669
2 1.16993 7.82931 22.6236
2 2.01248 5.55774 22.2467
2 1.79578 5.15228 23.905
2 3.5502 6.75566 24.6902
2 3.64739 7.40054 23.0527
2 4.21018 5.74693 23.3795
1 10.0782 5.98103 32.368
1 10.8039 4.81465 32.9658
1 12.324 4.87645 32.7444
1 13.0772 3.75799 33.4621
1 13.3745 2.53258 32.5959
1 14.2989 2.84849 31.4192
1 15.1538 1.66888 30.9661
1 14.3506 0.41598 30.6387
1 15.1261 14.6387 29.6973
1 14.4397 13.2916 29.4623
1 14.6212 12.2943 30.6071
1 16.0513 11.7555 30.7043
1 16.2185 10.728 31.8165
1 17.606 10.0676 31.8007
1 18.7568 11.0099 32.2191
1 0.488002 10.3446 32.0292
1 1.64705 11.2847 32.3854
1 2.97272 10.7178 31.8819
1 4.17792 11.6226 32.1181
1 4.66409 11.6242 33.569
1 6.11392 12.1092 33.7046
1 6.28638 13.6078 33.4348
1 7.75756 14.0305 33.5621
1 7.99346 0.372102 33.3083
1 9.46704 0.745584 33.1946
1 10.2799 0.62194 34.4791
1 9.80821 1.56196 35.5932
1 10.8443 1.68856 36.7122
1 10.28 2.37411 37.9579
1 9.77451 3.77289 37.6992
2 10.5228 6.78097 33.0483
2 10.2899 6.0192 31.1968
2 9.01142 5.98593 32.56
2 10.5877 4.80483 34.0419
2 10.3826 3.9279 32.5437
2 12.6818 5.83768 33.1005
2 12.5017 4.90679 31.6653
2 14.0225 4.1528 33.817
2 12.5699 3.45152 34.3693
2 12.4591 2.08909 32.2276
2 13.85 1.76936 33.2368
2 13.7011 3.22147 30.5748
2 14.9769 3.64857 31.698
2 15.9018 1.43886 31.7574
2 15.7101 1.9687 30.0858
2 14.1011 15.053 31.5663
2 13.4309 0.695678 30.1581
2 16.142 14.5171 30.0661
2 15.2489 15.1699 28.7528
2 13.3725 13.4431 29.2751
2 14.8322 12.8588 28.5544
2 13.9558 11.4466 30.4413
2 14.3022 12.7522 31.5542
2 16.3652 11.3056 29.7487
2 16.7395 12.5749 30.8845
2 15.4541 9.93872 31.714
2 16.0177 11.1823 32.7605
2 17.5973 9.22324 32.4586
2 17.7984 9.65962 30.7996
2 18.612 11.2668 33.2682
2 18.7544 11.916 31.5995
2 0.525547 9.44456 32.628
2 0.573713 10.0777 30.973
2 1.66214 11.4422 33.481
2 1.48974 12.2614 31.9479
2 3.13858 9.71711 32.3196
2 2.8821 10.5352 30.8154
2 3.95941 12.6321 31.7881
2 4.97108 11.2661 31.4708
2 4.01024 12.2038 34.1958
2 4.64904 10.5809 33.9261
2 6.75736 11.5287 33.025
2 6.46891 11.8987 34.6951
2 5.93095 13.8626 32.4325
2 5.69234 14.1981 34.15
2 8.34705 13.4417 32.8652
2 8.12104 13.7918 34.5604
2 7.48808 0.645298 32.3646
2 7.50347 0.962558 34.0722
2 9.55461 1.73846 32.8267
2 9.91571 0.116594 32.3981
2 10.2627 14.7282 34.8539
2 11.3191 0.818768 34.271
2 8.84266 1.24928 35.9891
2 9.63563 2.54918 35.1781
2 11.1879 0.704331 37.0065
2 11.7409 2.16682 36.3246
2 11.0488 2.46294 38.7604
2 9.55055 1.76961 38.405
2 9.61997 4.39369 38.6719
2 8.78366 3.79855 37.1059
2 10.5073 4.35248 37.1852
1 5.81608 13.3718 37.3847
1 5.95824 14.8932 37.3122
1 6.51528 0.349222 38.6054
1 6.33519 1.85045 38.6188
1 6.78162 2.49837 39.9271
1 6.22811 3.92712 40.0491
1 6.66993 4.63943 41.3275
1 5.89011 5.93729 41.53
1 6.29025 6.72248 42.7789
1 6.11014 5.9172 44.0749
1 5.79623 6.83875 45.2659
1 4.32443 7.23958 45.3454
1 3.4213 6.11336 45.8794
1 1.98396 6.55682 46.1285
1 1.16543 6.80136 44.8595
1 19.3252 7.08148 45.1189
1 18.5393 5.81196 45.4826
1 17.1253 6.10666 46.0066
1 16.1413 6.58574 44.9318
1 14.7405 6.7184 45.5191
1 13.6641 7.15553 44.5216
1 13.4274 6.11564 43.3974
1 12.1804 6.41748 42.5478
1 10.8441 6.14439 43.251
1 10.6035 4.68429 43.6665
1 10.6534 3.69742 42.5048
1 10.067 2.33229 42.8538
1 10.8731 1.60822 43.9546
1 10.4764 0.145958 44.1481
1 9.01363 15.1164 44.5456
2 5.14331 13.0796 38.2195
2 5.40224 12.9955 36.477
2 6.78826 12.9217 37.4929
2 6.62807 15.1387 36.4806
2 4.98683 0.14536 37.0955
2 7.56711 0.103269 38.7099
2 5.98112 15.0764 39.459
2 6.81402 2.30427 37.7795
2 5.24272 2.06723 38.4583
2 7.86226 2.48121 40.0003
2 6.39855 1.91498 40.765
2 6.55036 4.52173 39.1872
2 5.14619 3.89764 40.0053
2 7.73733 4.85721 41.2675
2 6.50004 3.98966 42.1715
2 6.02764 6.56179 40.6172
2 4.84747 5.70052 41.5852
2 5.7013 7.56456 42.8007
2 7.37853 7.07114 42.695
2 5.31237 5.17427 43.9545
2 7.0132 5.36153 44.2625
2 6.4124 7.71222 45.2001
2 6.08266 6.32498 46.2223
2 4.24909 8.07621 46.0263
2 3.98121 7.60241 44.3831
2 3.82928 5.72224 46.7974
2 3.42604 5.24201 45.2039
2 1.47726 5.73762 46.7009
2 1.94415 7.39771 46.7739
2 1.27737 5.96434 44.1321
2 1.58847 7.64109 44.3185
2 19.2334 7.81135 45.9094
2 18.8667 7.5531 44.2455
2 19.0449 5.27901 46.2576
2 18.4991 5.10921 44.6239
2 16.7207 5.20325 46.4427
2 17.1763 6.80916 46.8364
2 16.143 5.85131 44.1138
2 16.4576 7.52545 44.4839
2 14.4395 5.77808 45.9747
2 14.7741 7.45234 46.3147
2 13.9498 8.10834 44.0744
2 12.7332 7.28873 45.0977
2 14.301 6.14165 42.7351
2 13.3757 5.11988 43.8109
2 12.2408 5.79895 41.6138
2 12.2256 7.44817 42.2586
2 10.7318 6.80281 44.1486
2 10.0415 6.45306 42.5917
2 9.65877 4.59888 44.1794
2 11.3459 4.37543 44.46
2 10.089 4.10058 41.686
2 11.6901 3.59655 42.1075
2 10.0281 1.69883 41.9652
2 9.0272 2.3915 43.1552
2 11.9187 1.63257 43.7028
2 10.7691 2.13096 44.9097
2 11.081 14.8783 44.9207
2 10.7016 14.7447 43.2209
2 8.72674 0.580607 45.3997
2 8.84632 14.0849 44.8417
2 8.31924 0.18759 43.7571
1 13.374 14.9969 25.9399
1 13.6058 0.940381 24.891
1 15.0789 1.08234 24.4777
1 15.5944 15.0539 23.6372
1 17.0329 0.062175 23.1144
1 17.2805 1.29079 22.2381
1 16.2891 1.42992 21.0731
1 16.8229 2.28614 19.9149
1 17.2076 3.70292 20.3382
1 17.5103 4.57979 19.1272
1 18.3099 5.84093 19.4646
1 17.5771 6.75928 20.4428
1 18.2402 8.13931 20.5701
1 17.6149 8.96623 21.6956
1 17.989 10.4519 21.6193
1 19.4974 10.7175 21.6377
1 0.15183 12.2078 21.7175
1 1.656 12.5078 21.628
1 1.97044 14.0109 21.5124
1 1.54866 14.8548 22.7127
1 2.29614 14.5057 24.0121
1 1.86949 0.210632 25.2028
1 2.29274 1.69396 25.1198
1 1.82525 2.52287 26.3241
1 2.43965 2.13851 27.6662
1 3.95374 2.3922 27.7191
1 4.58626 2.06488 29.0799
1 4.45956 0.601596 29.5035
1 5.00927 14.7565 28.4732
1 5.03189 13.3287 29.0189
2 13.9795 15.1525 26.8198
2 12.3511 14.9841 26.2654
2 13.6156 14.006 25.5532
2 13.0003 0.733989 24.0085
2 13.2812 1.89324 25.2897
2 15.7239 1.23699 25.3524
2 15.1666 1.99848 23.9105
2 15.568 14.1632 24.2625
2 14.9002 14.8783 22.8124
2 17.2957 14.3268 22.5862
2 17.7574 0.0915083 23.9619
2 17.2921 2.1862 22.8365
2 18.3055 1.20505 21.8364
2 15.3255 1.81254 21.4223
2 16.0712 0.421641 20.6788
2 17.657 1.76569 19.4741
2 16.0337 2.32609 19.151
2 18.0855 3.66383 20.9793
2 16.4168 4.14767 20.9246
2 18.0677 3.99118 18.3835