ITEM: TIMESTEP
195
ITEM: NUMBER OF ATOMS
7
ITEM: BOX BOUNDS pp pp pp
3.1919132607377776e-02 1.9668080867392622e+01
2.4627960184362863e-02 1.5175372039815644e+01
-1.5025196335106529e+01 7.7849030335106562e+01
ITEM: ATOMS id type x y z vx vy vz fx fy fz mol
2304 2 8.84505 7.19894 31.5547 0 0 0 -242.619 360.801 -263.54 27
2305 2 10.2651 7.2172 30.4771 0 0 0 -80.6367 1146.92 -481.926 27
2306 2 10.4858 7.29269 32.2456 0 0 0 -1.65216e+06 2.31928e+07 -3.63705e+07 27
2303 1 9.85053 7.60036 31.4121 0 0 0 -1429.34 4826.57 -3376.21 27
2307 2 9.80348 8.6908 31.3701 0 0 0 1.31173e+06 -1.60451e+06 -986635 27
2302 2 9.34726 7.39929 36.142 0 0 0 2060.61 -742.325 -920.715 26
2301 2 10.3527 7.80071 35.9994 0 0 0 -135271 -899195 -393671 26
ITEM: TIMESTEP
196
ITEM: NUMBER OF ATOMS
7
ITEM: BOX BOUNDS pp pp pp
3.1919132607377776e-02 1.9668080867392622e+01
2.4627960184362863e-02 1.5175372039815644e+01
-1.5025196335106529e+01 7.7849030335106562e+01
ITEM: ATOMS id type x y z vx vy vz fx fy fz mol
2304 2 8.84505 7.19894 31.5547 0 0 0 -240.646 359.782 -260.577 27
2305 2 10.2651 7.21721 30.4771 0 0 0 -81.4641 1147.2 -482.028 27
2306 2 10.4829 7.33291 32.1825 0 0 0 -94171.3 1.40891e+06 -2.18577e+06 27
2303 1 9.85053 7.60037 31.4121 0 0 0 -1131.21 4567.15 -2772.36 27
2307 2 9.80575 8.68802 31.3684 0 0 0 1.14888e+06 -1.40554e+06 -864211 27
2302 2 9.34726 7.39929 36.142 0 0 0 2066.51 -735.513 -919.957 26
2301 2 10.3525 7.79915 35.9987 0 0 0 -133768 -860411 -379588 26
ITEM: TIMESTEP
197
ITEM: NUMBER OF ATOMS
7
ITEM: BOX BOUNDS pp pp pp
3.1919132607377776e-02 1.9668080867392622e+01
2.4627960184362863e-02 1.5175372039815644e+01
-1.5025196335106529e+01 7.7849030335106562e+01
ITEM: ATOMS id type x y z vx vy vz fx fy fz mol
2304 2 8.84504 7.19895 31.5547 0 0 0 -239.15 360.564 -257.929 27
2305 2 10.2651 7.21723 30.4771 0 0 0 -82.4196 1145.14 -481.105 27
2306 2 10.4808 7.36514 32.1325 0 0 0 -11560.4 227655 -339243 27
2303 1 9.85051 7.60047 31.412 0 0 0 -1053.8 4618.92 -2454.35 27
2307 2 9.83203 8.65587 31.3486 0 0 0 271899 -333690 -204829 27
2302 2 9.34731 7.39927 36.142 0 0 0 2134.89 -655.8 -910.903 26
2301 2 10.3494 7.77947 35.99 0 0 0 -117122 -498458 -246495 26
ITEM: TIMESTEP
198
ITEM: NUMBER OF ATOMS
7
ITEM: BOX BOUNDS pp pp pp
3.1919132607377776e-02 1.9668080867392622e+01
2.4627960184362863e-02 1.5175372039815644e+01
-1.5025196335106529e+01 7.7849030335106562e+01
ITEM: ATOMS id type x y z vx vy vz fx fy fz mol
2304 2 8.84502 7.19898 31.5547 0 0 0 -237.109 360.778 -255.416 27
2305 2 10.2651 7.21734 30.4771 0 0 0 -83.2284 1139.83 -478.108 27
2306 2 10.4796 7.38735 32.0994 0 0 0 -2117.15 80866.2 -112942 27
2303 1 9.8504 7.60092 31.4118 0 0 0 -1030.8 4642.41 -2278.47 27
2307 2 9.85856 8.62331 31.3286 0 0 0 73324.8 -90683.4 -55444.3 27
2302 2 9.34752 7.39921 36.1419 0 0 0 2259.3 -501.053 -891.601 26
2301 2 10.338 7.73083 35.966 0 0 0 -81088.8 -138872 -101129 26
ITEM: TIMESTEP
199
ITEM: NUMBER OF ATOMS
7
ITEM: BOX BOUNDS pp pp pp
3.1919132607377776e-02 1.9668080867392622e+01
2.4627960184362863e-02 1.5175372039815644e+01
-1.5025196335106529e+01 7.7849030335106562e+01
ITEM: ATOMS id type x y z vx vy vz fx fy fz mol
2304 2 8.84486 7.19923 31.5545 0 0 0 -226.543 355.676 -245.979 27
2305 2 10.2651 7.21813 30.4767 0 0 0 -85.4126 1109.98 -459.606 27
2306 2 10.4782 7.44287 32.0219 0 0 0 978.266 12182.7 -12175.2 27
2303 1 9.84969 7.60411 31.4102 0 0 0 -951.266 4373.5 -1917.54 27
2307 2 9.9089 8.56105 31.2906 0 0 0 8302.32 -10699.4 -6428.16 27
2302 2 9.34907 7.39886 36.1413 0 0 0 2336.45 -323.133 -854.275 26
2301 2 10.2823 7.63548 35.8966 0 0 0 -19809 -15983.4 -17478.9 26
ITEM: TIMESTEP
200
ITEM: NUMBER OF ATOMS
7
ITEM: BOX BOUNDS pp pp pp
3.1919132607377776e-02 1.9668080867392622e+01
2.4627960184362863e-02 1.5175372039815644e+01
-1.5025196335106529e+01 7.7849030335106562e+01
ITEM: ATOMS id type x y z vx vy vz fx fy fz mol
2304 2 8.84371 7.20103 31.5532 0 0 0 -181.391 322.098 -216.576 27
2305 2 10.2646 7.22373 30.4744 0 0 0 -87.0458 936.106 -346.27 27
2306 2 10.4831 7.50437 31.9604 0 0 0 526.228 3346.22 -2511.31 27
2303 1 9.84489 7.62619 31.4005 0 0 0 -668.369 2892.53 -1233.92 27
2307 2 9.95082 8.50704 31.2581 0 0 0 1687.95 -2322.56 -1395.57 27
2302 2 9.36086 7.39723 36.137 0 0 0 2043.11 -256.02 -735.727 26
2301 2 10.1823 7.5548 35.8083 0 0 0 -3249.13 -4175.54 -2360.37 26
ITEM: TIMESTEP
201
ITEM: NUMBER OF ATOMS
7
ITEM: BOX BOUNDS pp pp pp
3.1919132607377776e-02 1.9668080867392622e+01
2.4627960184362863e-02 1.5175372039815644e+01
-1.5025196335106529e+01 7.7849030335106562e+01
ITEM: ATOMS id type x y z vx vy vz fx fy fz mol
2304 2 8.83937 7.20874 31.548 0 0 0 -98.7805 252.26 -161.34 27
2305 2 10.2626 7.24615 30.4661 0 0 0 -84.9624 508.368 -78.9352 27
2306 2 10.4957 7.58451 31.9003 0 0 0 202.414 760.773 -464.951 27
2303 1 9.82889 7.69546 31.371 0 0 0 -263.042 757.237 -505.117 27
2307 2 9.99124 8.45141 31.2247 0 0 0 412.976 -521.208 -406.641 27
2302 2 9.40979 7.3911 36.1193 0 0 0 1163.11 -209.881 -426.643 26
2301 2 10.1045 7.4548 35.7518 0 0 0 -1389.43 -593.736 -1113.65 26
ITEM: TIMESTEP
202
ITEM: NUMBER OF ATOMS
7
ITEM: BOX BOUNDS pp pp pp
3.1919132607377776e-02 1.9668080867392622e+01
2.4627960184362863e-02 1.5175372039815644e+01
-1.5025196335106529e+01 7.7849030335106562e+01
ITEM: ATOMS id type x y z vx vy vz fx fy fz mol
2304 2 8.83226 7.2269 31.5364 0 0 0 -51.7754 187.034 -110.665 27
2305 2 10.2564 7.28274 30.4604 0 0 0 -69.8967 223.977 45.2383 27
2306 2 10.5103 7.63926 31.8668 0 0 0 124.711 275.703 -125.916 27
2303 1 9.80995 7.74996 31.3346 0 0 0 -126.175 26.4533 -273.45 27
2307 2 10.021 8.4139 31.1954 0 0 0 161.867 -64.8641 -200.27 27
2302 2 9.49351 7.376 36.0886 0 0 0 319.421 -200.534 -124.743 26
2301 2 10.0045 7.41206 35.6716 0 0 0 -273.46 -488.427 -395.036 26
ITEM: TIMESTEP
203
ITEM: NUMBER OF ATOMS
7
ITEM: BOX BOUNDS pp pp pp
3.1919132607377776e-02 1.9668080867392622e+01
2.4627960184362863e-02 1.5175372039815644e+01
-1.5025196335106529e+01 7.7849030335106562e+01
ITEM: ATOMS id type x y z vx vy vz fx fy fz mol
2304 2 8.82166 7.26519 31.5138 0 0 0 -33.3211 109.509 -53.908 27
2305 2 10.2421 7.32859 30.4697 0 0 0 -35.2065 63.9846 15.9295 27
2306 2 10.5358 7.69571 31.841 0 0 0 73.2675 96.0262 -7.62825 27
2303 1 9.78412 7.75538 31.2787 0 0 0 -82.4134 -102.539 -142.393 27
2307 2 10.0541 8.40062 31.1544 0 0 0 70.7611 109.988 -107.905 27
2302 2 9.5589 7.33494 36.0631 0 0 0 4.8962 -137.912 13.6341 26
2301 2 9.94854 7.31206 35.5908 0 0 0 -38.1688 -147.449 -342.886 26
ITEM: TIMESTEP
204
ITEM: NUMBER OF ATOMS
7
ITEM: BOX BOUNDS pp pp pp
3.1919132607377776e-02 1.9668080867392622e+01
2.4627960184362863e-02 1.5175372039815644e+01
-1.5025196335106529e+01 7.7849030335106562e+01
ITEM: ATOMS id type x y z vx vy vz fx fy fz mol
2304 2 8.81194 7.29713 31.4981 0 0 0 -39.5295 67.4333 -26.6141 27
2305 2 10.2319 7.34725 30.4743 0 0 0 -15.7013 6.5333 -20.3478 27
2306 2 10.5572 7.72372 31.8388 0 0 0 38.1354 60.0603 2.46954 27
2303 1 9.76009 7.72547 31.2371 0 0 0 -44.83 -19.3681 -93.6994 27
2307 2 10.0747 8.4327 31.123 0 0 0 44.8692 93.6018 -75.897 27
2302 2 9.56033 7.29472 36.0671 0 0 0 59.7218 -144.337 -74.2235 26
2301 2 9.93741 7.26906 35.4908 0 0 0 -50.7011 -113.469 -193.541 26
ITEM: TIMESTEP
205
ITEM: NUMBER OF ATOMS
7
ITEM: BOX BOUNDS pp pp pp
3.1919132607377776e-02 1.9668080867392622e+01
2.4627960184362863e-02 1.5175372039815644e+01
-1.5025196335106529e+01 7.7849030335106562e+01
ITEM: ATOMS id type x y z vx vy vz fx fy fz mol
2304 2 8.79152 7.33197 31.4843 0 0 0 -35.9049 41.2114 -10.3625 27
2305 2 10.2238 7.35063 30.4638 0 0 0 -5.89464 -26.5213 -35.7712 27
2306 2 10.5769 7.75475 31.8401 0 0 0 0.0575825 30.6 -1.92051 27
2303 1 9.73692 7.71547 31.1887 0 0 0 2.004 2.33502 -35.3863 27
2307 2 10.0979 8.48106 31.0837 0 0 0 24.6176 63.6382 -51.5038 27
2302 2 9.59119 7.22014 36.0287 0 0 0 4.8605 -118.95 -78.3943 26
2301 2 9.91122 7.21043 35.3908 0 0 0 -27.906 -69.211 -116.887 26
ITEM: TIMESTEP
206
ITEM: NUMBER OF ATOMS
7
ITEM: BOX BOUNDS pp pp pp
3.1919132607377776e-02 1.9668080867392622e+01
2.4627960184362863e-02 1.5175372039815644e+01
-1.5025196335106529e+01 7.7849030335106562e+01
ITEM: ATOMS id type x y z vx vy vz fx fy fz mol
2304 2 8.76133 7.36662 31.4756 0 0 0 -15.6374 32.0717 -7.34714 27
2305 2 10.2188 7.32833 30.4338 0 0 0 -8.63396 -33.0834 -24.5173 27
2306 2 10.577 7.78047 31.8385 0 0 0 -10.9084 12.4695 2.0769 27
2303 1 9.73861 7.71743 31.159 0 0 0 10.1698 7.83203 -6.53729 27
2307 2 10.1186 8.53456 31.0404 0 0 0 8.9599 31.0913 -36.0394 27
2302 2 9.59527 7.12014 35.9628 0 0 0 34.4884 -79.3476 -70.2467 26
2301 2 9.88776 7.15225 35.2925 0 0 0 -11.9288 -38.7832 -56.6473 26
ITEM: TIMESTEP
207
ITEM: NUMBER OF ATOMS
7
ITEM: BOX BOUNDS pp pp pp
3.1919132607377776e-02 1.9668080867392622e+01
2.4627960184362863e-02 1.5175372039815644e+01
-1.5025196335106529e+01 7.7849030335106562e+01
ITEM: ATOMS id type x y z vx vy vz fx fy fz mol
2304 2 8.74163 7.40704 31.4663 0 0 0 0.790305 27.6823 -6.17113 27
2305 2 10.2079 7.28664 30.4029 0 0 0 -14.8033 -28.0143 -8.10017 27
2306 2 10.5632 7.79619 31.8411 0 0 0 -5.35847 3.02444 11.9847 27
2303 1 9.75142 7.7273 31.1507 0 0 0 3.77404 -6.34009 -4.51431 27
2307 2 10.1299 8.57374 30.995 0 0 0 -0.673138 14.3132 -24.3595 27
2302 2 9.63874 7.02014 35.8743 0 0 0 -24.8994 -62.9934 0.481719 26
2301 2 9.87272 7.10337 35.2211 0 0 0 13.1674 -18.3375 -92.5258 26
ITEM: TIMESTEP
208
ITEM: NUMBER OF ATOMS
7
ITEM: BOX BOUNDS pp pp pp
3.1919132607377776e-02 1.9668080867392622e+01
2.4627960184362863e-02 1.5175372039815644e+01
-1.5025196335106529e+01 7.7849030335106562e+01
ITEM: ATOMS id type x y z vx vy vz fx fy fz mol
2304 2 8.74248 7.43695 31.4597 0 0 0 -2.00594 21.6994 -3.5998 27
2305 2 10.1919 7.25636 30.3941 0 0 0 -13.5321 -29.1222 -9.63911 27
2306 2 10.5574 7.79946 31.854 0 0 0 -6.91347 2.40867 8.56971 27
2303 1 9.7555 7.72045 31.1458 0 0 0 10.6152 9.89043 -1.20551 27
2307 2 10.1292 8.58921 30.9687 0 0 0 -5.79236 2.23362 -17.703 27
2302 2 9.61183 6.95206 35.8748 0 0 0 71.5152 -24.3848 -160.071 26
2301 2 9.88695 7.08355 35.1211 0 0 0 -45.0651 -37.0264 93.7766 26
ITEM: TIMESTEP
209
ITEM: NUMBER OF ATOMS
7
ITEM: BOX BOUNDS pp pp pp
3.1919132607377776e-02 1.9668080867392622e+01
2.4627960184362863e-02 1.5175372039815644e+01
-1.5025196335106529e+01 7.7849030335106562e+01
ITEM: ATOMS id type x y z vx vy vz fx fy fz mol
2304 2 8.74194 7.47562 31.4518 0 0 0 -0.125395 17.4305 -2.19867 27
2305 2 10.17 7.21274 30.3807 0 0 0 -13.0096 -26.1858 -6.0518 27
2306 2 10.5482 7.80371 31.8703 0 0 0 -5.59827 1.02799 6.51675 27
2303 1 9.76558 7.72092 31.141 0 0 0 8.81975 8.02278 1.04854 27
2307 2 10.1249 8.60357 30.9355 0 0 0 -8.24256 -3.16587 -11.5276 27
2302 2 9.63417 6.87975 35.7748 0 0 0 24.8336 -31.6238 -29.6253 26
2301 2 9.87059 7.04373 35.0962 0 0 0 -0.59052 -12.0961 -16.3782 26
ITEM: TIMESTEP
210
ITEM: NUMBER OF ATOMS
7
ITEM: BOX BOUNDS pp pp pp
3.1919132607377776e-02 1.9668080867392622e+01
2.4627960184362863e-02 1.5175372039815644e+01
-1.5025196335106529e+01 7.7849030335106562e+01
ITEM: ATOMS id type x y z vx vy vz fx fy fz mol
2304 2 8.74175 7.50186 31.4485 0 0 0 6.26666 17.071 -1.93564 27
2305 2 10.1504 7.17332 30.3716 0 0 0 -14.2842 -17.2264 3.74787 27
2306 2 10.5398 7.80525 31.8801 0 0 0 0.574724 -0.387381 10.0387 27
2303 1 9.77886 7.73299 31.1426 0 0 0 -6.78446 -25.8883 -1.32989 27
2307 2 10.1125 8.5988 30.9182 0 0 0 -3.09373 14.4484 -16.5781 27
2302 2 9.67155 6.83215 35.7302 0 0 0 -8.40722 -38.9966 4.72619 26
2301 2 9.8697 7.02552 35.0716 0 0 0 8.36839 -1.00591 -49.0876 26
ITEM: TIMESTEP
211
ITEM: NUMBER OF ATOMS
7
ITEM: BOX BOUNDS pp pp pp
3.1919132607377776e-02 1.9668080867392622e+01
2.4627960184362863e-02 1.5175372039815644e+01
-1.5025196335106529e+01 7.7849030335106562e+01
ITEM: ATOMS id type x y z vx vy vz fx fy fz mol
2304 2 8.75104 7.5503 31.4427 0 0 0 -6.30324 8.1759 2.42233 27
2305 2 10.112 7.11325 30.3694 0 0 0 -10.7127 -17.6695 -0.562885 27
2306 2 10.5334 7.80601 31.9037 0 0 0 -3.14658 -1.37078 1.7478 27
2303 1 9.78009 7.70435 31.1419 0 0 0 10.1008 20.5533 -4.56962 27
2307 2 10.0971 8.61649 30.8782 0 0 0 -9.59971 -17.6683 -5.56892 27
2302 2 9.69117 6.73215 35.6988 0 0 0 23.284 11.0973 -113.517 26
2301 2 9.88157 7.00826 34.9762 0 0 0 -25.5212 -39.4532 82.8969 26
ITEM: TIMESTEP
212
ITEM: NUMBER OF ATOMS
7
ITEM: BOX BOUNDS pp pp pp
3.1919132607377776e-02 1.9668080867392622e+01
2.4627960184362863e-02 1.5175372039815644e+01
-1.5025196335106529e+01 7.7849030335106562e+01
ITEM: ATOMS id type x y z vx vy vz fx fy fz mol
2304 2 8.75404 7.59325 31.4399 0 0 0 -6.17654 4.26178 3.08956 27
2305 2 10.075 7.05498 30.3673 0 0 0 -7.98722 -12.5039 1.26407 27
2306 2 10.5263 7.80567 31.9232 0 0 0 -3.58993 -2.77106 -3.79719 27
2303 1 9.78778 7.69589 31.1384 0 0 0 6.75672 23.4725 -2.5831 27
2307 2 10.0788 8.6184 30.8435 0 0 0 -8.62967 -21.2276 -3.29256 27
2302 2 9.72188 6.66215 35.5988 0 0 0 -1.38364 -24.5666 -2.55962 26
2301 2 9.87373 6.9686 34.9576 0 0 0 1.80537 4.18831 -17.2222 26
ITEM: TIMESTEP
213
ITEM: NUMBER OF ATOMS
7
ITEM: BOX BOUNDS pp pp pp
3.1919132607377776e-02 1.9668080867392622e+01
2.4627960184362863e-02 1.5175372039815644e+01
-1.5025196335106529e+01 7.7849030335106562e+01
ITEM: ATOMS id type x y z vx vy vz fx fy fz mol
2304 2 8.74848 7.60775 31.4423 0 0 0 4.48948 6.1909 1.03326 27
2305 2 10.0582 7.02848 30.3681 0 0 0 -8.23952 -2.80446 8.98353 27
2306 2 10.521 7.80279 31.9239 0 0 0 0.561383 -2.72246 -0.252474 27
2303 1 9.79645 7.71769 31.1349 0 0 0 -13.9021 -27.926 3.34298 27
2307 2 10.0657 8.59733 30.8319 0 0 0 -0.56307 13.896 -15.6946 27
2302 2 9.72775 6.62064 35.5725 0 0 0 3.54135 -16.1044 -15.809 26
2301 2 9.8737 6.96345 34.9357 0 0 0 -2.5297 -2.59512 0.504616 26
ITEM: TIMESTEP
214
ITEM: NUMBER OF ATOMS
7
ITEM: BOX BOUNDS pp pp pp
3.1919132607377776e-02 1.9668080867392622e+01
2.4627960184362863e-02 1.5175372039815644e+01
-1.5025196335106529e+01 7.7849030335106562e+01
ITEM: ATOMS id type x y z vx vy vz fx fy fz mol
2304 2 8.74611 7.64363 31.4484 0 0 0 0.867506 3.10031 2.77479 27
2305 2 10.0148 6.97704 30.3844 0 0 0 -6.33552 0.228512 7.37542 27
2306 2 10.5126 7.79317 31.9248 0 0 0 1.02746 -2.95873 0.171588 27
2303 1 9.78874 7.70992 31.1344 0 0 0 -12.5717 -29.2752 4.24943 27
2307 2 10.0417 8.58313 30.7855 0 0 0 -0.411324 14.4495 -13.5465 27
2302 2 9.744 6.52064 35.4999 0 0 0 11.9078 -2.19441 -25.74 26
2301 2 9.86947 6.95004 34.8979 0 0 0 -5.62922 -12.0897 19.6177 26
ITEM: TIMESTEP
215
ITEM: NUMBER OF ATOMS
7
ITEM: BOX BOUNDS pp pp pp
3.1919132607377776e-02 1.9668080867392622e+01
2.4627960184362863e-02 1.5175372039815644e+01
-1.5025196335106529e+01 7.7849030335106562e+01
ITEM: ATOMS id type x y z vx vy vz fx fy fz mol
2304 2 8.74602 7.65911 31.4529 0 0 0 -8.4084 -0.443078 5.26504 27
2305 2 9.99376 6.95891 30.3966 0 0 0 -4.78226 -8.14798 -0.960415 27
2306 2 10.5104 7.78717 31.9253 0 0 0 -1.76649 -3.47545 -2.72105 27
2303 1 9.77502 7.6816 31.1379 0 0 0 3.20976 17.203 -0.958603 27
2307 2 10.0327 8.59069 30.7571 0 0 0 -7.09639 -15.9484 1.23923 27
2302 2 9.76018 6.48311 35.4515 0 0 0 4.94506 -31.3869 16.0196 26
2301 2 9.86304 6.93471 34.9016 0 0 0 3.70811 19.0464 -20.4154 26
ITEM: TIMESTEP
216
ITEM: NUMBER OF ATOMS
7
ITEM: BOX BOUNDS pp pp pp
3.1919132607377776e-02 1.9668080867392622e+01
2.4627960184362863e-02 1.5175372039815644e+01
-1.5025196335106529e+01 7.7849030335106562e+01
ITEM: ATOMS id type x y z vx vy vz fx fy fz mol
2304 2 8.73548 7.67452 31.4642 0 0 0 -6.40877 -1.48292 5.06279 27
2305 2 9.96617 6.93011 30.408 0 0 0 -5.25257 -6.47042 -0.195836 27
2306 2 10.5061 7.77666 31.9224 0 0 0 -1.48447 -2.50414 -2.25508 27
2303 1 9.76487 7.67379 31.1403 0 0 0 1.42958 18.307 -2.96907 27
2307 2 10.0147 8.57865 30.7294 0 0 0 -6.80707 -15.6263 1.93455 27
2302 2 9.78301 6.40541 35.4216 0 0 0 11.9434 22.4994 -39.5154 26
2301 2 9.86103 6.94259 34.88 0 0 0 -5.23588 -33.2078 37.3641 26
ITEM: TIMESTEP
217
ITEM: NUMBER OF ATOMS
7
ITEM: BOX BOUNDS pp pp pp
3.1919132607377776e-02 1.9668080867392622e+01
2.4627960184362863e-02 1.5175372039815644e+01
-1.5025196335106529e+01 7.7849030335106562e+01
ITEM: ATOMS id type x y z vx vy vz fx fy fz mol
2304 2 8.71194 7.69749 31.4875 0 0 0 4.0703 -1.28808 2.59206 27
2305 2 9.91671 6.87741 30.426 0 0 0 -6.98209 6.26091 8.11628 27
2306 2 10.4975 7.75728 31.9155 0 0 0 0.0461948 0.178648 -0.419206 27
2303 1 9.75022 7.68066 31.141 0 0 0 -12.4753 -19.2893 0.0556716 27
2307 2 9.97885 8.54301 30.6874 0 0 0 -1.14504 7.86595 -9.27009 27
2302 2 9.83194 6.30541 35.3323 0 0 0 5.23123 21.7633 -23.9987 26
2301 2 9.85231 6.92012 34.885 0 0 0 0.73845 -30.2321 24.1004 26
ITEM: TIMESTEP
218
ITEM: NUMBER OF ATOMS
7
ITEM: BOX BOUNDS pp pp pp
3.1919132607377776e-02 1.9668080867392622e+01
2.4627960184362863e-02 1.5175372039815644e+01
-1.5025196335106529e+01 7.7849030335106562e+01
ITEM: ATOMS id type x y z vx vy vz fx fy fz mol
2304 2 8.71038 7.70085 31.4935 0 0 0 -0.507721 -2.23083 3.67998 27
2305 2 9.90282 6.87197 30.4348 0 0 0 -6.12215 0.205438 2.64846 27
2306 2 10.496 7.75383 31.9139 0 0 0 -2.71826 -0.61056 -2.93649 27
2303 1 9.73899 7.66876 31.1412 0 0 0 -3.33267 -1.74927 1.99123 27
2307 2 9.97145 8.54181 30.6733 0 0 0 -3.83582 -2.57285 -2.95059 27
2302 2 9.84454 6.30183 35.2994 0 0 0 3.89391 -40.111 20.637 26
2301 2 9.85121 6.89533 34.9024 0 0 0 3.42864 32.2574 -20.1537 26
ITEM: TIMESTEP
219
ITEM: NUMBER OF ATOMS
7
ITEM: BOX BOUNDS pp pp pp
3.1919132607377776e-02 1.9668080867392622e+01
2.4627960184362863e-02 1.5175372039815644e+01
-1.5025196335106529e+01 7.7849030335106562e+01
ITEM: ATOMS id type x y z vx vy vz fx fy fz mol
2304 2 8.70873 7.70181 31.5013 0 0 0 -5.08697 -2.71164 4.96615 27
2305 2 9.88694 6.86777 30.444 0 0 0 -5.13627 -5.85168 -2.36727 27
2306 2 10.4926 7.75059 31.9103 0 0 0 -3.89867 -1.47648 -3.56777 27
2303 1 9.72741 7.65785 31.1429 0 0 0 4.07796 13.5474 2.04313 27
2307 2 9.96254 8.53885 30.6597 0 0 0 -6.24637 -10.9998 2.41284 27
2302 2 9.85766 6.26786 35.2891 0 0 0 3.49717 -0.9831 -4.03507 26
2301 2 9.85298 6.90046 34.9007 0 0 0 3.59434 -6.48704 4.8997 26
ITEM: TIMESTEP
220
ITEM: NUMBER OF ATOMS
7
ITEM: BOX BOUNDS pp pp pp
3.1919132607377776e-02 1.9668080867392622e+01
2.4627960184362863e-02 1.5175372039815644e+01
-1.5025196335106529e+01 7.7849030335106562e+01
ITEM: ATOMS id type x y z vx vy vz fx fy fz mol
2304 2 8.69823 7.69942 31.5222 0 0 0 -3.80096 -1.29491 5.12945 27
2305 2 9.85152 6.85165 30.4564 0 0 0 -4.46103 -3.78829 -0.0944707 27
2306 2 10.481 7.74272 31.8988 0 0 0 1.62265 -1.02556 2.85042 27
2303 1 9.71332 7.65916 31.1489 0 0 0 -3.27956 -0.666393 -2.26086 27
2307 2 9.93763 8.51719 30.6397 0 0 0 -4.54166 -0.100311 -2.91921 27
2302 2 9.88579 6.20714 35.265 0 0 0 -0.37643 56.5119 -31.1313 26
2301 2 9.86147 6.89967 34.9051 0 0 0 6.31507 -62.9591 32.9118 26
ITEM: TIMESTEP
221
ITEM: NUMBER OF ATOMS
7
ITEM: BOX BOUNDS pp pp pp
3.1919132607377776e-02 1.9668080867392622e+01
2.4627960184362863e-02 1.5175372039815644e+01
-1.5025196335106529e+01 7.7849030335106562e+01
ITEM: ATOMS id type x y z vx vy vz fx fy fz mol
2304 2 8.68222 7.69539 31.5518 0 0 0 -0.461854 0.390743 4.04395 27
2305 2 9.80501 6.82892 30.4713 0 0 0 -3.75772 -0.190734 3.35999 27
2306 2 10.4684 7.73235 31.8875 0 0 0 5.54891 -0.408981 6.73205 27
2303 1 9.69348 7.66014 31.1541 0 0 0 -10.8268 -16.9351 -3.39304 27
2307 2 9.90367 8.49107 30.6129 0 0 0 -3.12891 10.3711 -8.27792 27
2302 2 9.91925 6.18452 35.2083 0 0 0 3.21299 -43.727 19.6293 26
2301 2 9.87728 6.84267 34.9397 0 0 0 2.64424 38.9838 -15.8263 26
ITEM: TIMESTEP
222
ITEM: NUMBER OF ATOMS
7
ITEM: BOX BOUNDS pp pp pp
3.1919132607377776e-02 1.9668080867392622e+01
2.4627960184362863e-02 1.5175372039815644e+01
-1.5025196335106529e+01 7.7849030335106562e+01
ITEM: ATOMS id type x y z vx vy vz fx fy fz mol
2304 2 8.65527 7.68916 31.6053 0 0 0 1.15761 1.50487 2.01855 27
2305 2 9.72406 6.79114 30.4994 0 0 0 -2.57534 -2.51933 2.65933 27
2306 2 10.4535 7.71478 31.8761 0 0 0 1.57697 -0.697739 2.03745 27
2303 1 9.64899 7.64347 31.159 0 0 0 -5.28117 -10.9978 0.11835 27
2307 2 9.84414 8.4591 30.5598 0 0 0 -5.73209 5.57455 -3.33044 27
2302 2 9.97803 6.09989 35.1358 0 0 0 3.3051 -43.8119 17.6627 26
2301 2 9.90628 6.79055 34.9798 0 0 0 1.24098 41.1157 -10.634 26
ITEM: TIMESTEP
223
ITEM: NUMBER OF ATOMS
7
ITEM: BOX BOUNDS pp pp pp
3.1919132607377776e-02 1.9668080867392622e+01
2.4627960184362863e-02 1.5175372039815644e+01
-1.5025196335106529e+01 7.7849030335106562e+01
ITEM: ATOMS id type x y z vx vy vz fx fy fz mol
2304 2 8.6531 7.68926 31.6117 0 0 0 -0.0357715 0.999855 2.26016 27
2305 2 9.71456 6.78606 30.5036 0 0 0 -2.52697 -4.82985 0.983289 27
2306 2 10.4528 7.71265 31.8759 0 0 0 -0.522937 -1.02999 -0.124127 27
2303 1 9.64187 7.63638 31.1595 0 0 0 -0.921689 -2.38511 0.140364 27
2307 2 9.83527 8.45859 30.5528 0 0 0 -6.80241 0.413758 0.333356 27
2302 2 9.98564 6.06978 35.1371 0 0 0 -4.34927 27.7172 2.20306 26
2301 2 9.90985 6.80541 34.9787 0 0 0 8.6653 -30.4801 4.33886 26
ITEM: TIMESTEP
224
ITEM: NUMBER OF ATOMS
7
ITEM: BOX BOUNDS pp pp pp
3.1919132607377776e-02 1.9668080867392622e+01
2.4627960184362863e-02 1.5175372039815644e+01
-1.5025196335106529e+01 7.7849030335106562e+01
ITEM: ATOMS id type x y z vx vy vz fx fy fz mol
2304 2 8.65116 7.6903 31.6195 0 0 0 -0.867402 0.0857664 2.43634 27
2305 2 9.70386 6.77705 30.5081 0 0 0 -2.54507 -5.93271 -0.260622 27
2306 2 10.4517 7.70981 31.8757 0 0 0 -2.30313 -1.14982 -2.3837 27
2303 1 9.63478 7.62793 31.1602 0 0 0 2.30552 5.77291 -0.200474 27
2307 2 9.82108 8.45852 30.547 0 0 0 -7.38712 -4.73331 3.59313 27
2302 2 9.98816 6.06973 35.1403 0 0 0 -1.61951 1.63451 7.07625 26
2301 2 9.92116 6.78953 34.9818 0 0 0 5.3954 -4.61685 -1.31741 26
ITEM: TIMESTEP
225
ITEM: NUMBER OF ATOMS
7
ITEM: BOX BOUNDS pp pp pp
3.1919132607377776e-02 1.9668080867392622e+01
2.4627960184362863e-02 1.5175372039815644e+01
-1.5025196335106529e+01 7.7849030335106562e+01
ITEM: ATOMS id type x y z vx vy vz fx fy fz mol
2304 2 8.6455 7.69256 31.64 0 0 0 2.55609 -1.15865 1.05195 27
2305 2 9.67717 6.74678 30.5168 0 0 0 -2.46876 3.04822 3.84528 27
2306 2 10.4447 7.70175 31.8703 0 0 0 -0.0326147 0.484062 -2.52429 27
2303 1 9.62528 7.6228 31.161 0 0 0 -5.80435 -5.79442 -0.401994 27
2307 2 9.77744 8.44869 30.5426 0 0 0 -4.6867 0.0554543 -1.44581 27
2302 2 9.98991 6.07298 35.1613 0 0 0 1.7989 -64.8885 21.5807 26
2301 2 9.95495 6.74818 34.9854 0 0 0 -0.412394 61.4593 -18.3063 26
ITEM: TIMESTEP
226
ITEM: NUMBER OF ATOMS
7
ITEM: BOX BOUNDS pp pp pp
3.1919132607377776e-02 1.9668080867392622e+01
2.4627960184362863e-02 1.5175372039815644e+01
-1.5025196335106529e+01 7.7849030335106562e+01
ITEM: ATOMS id type x y z vx vy vz fx fy fz mol
2304 2 8.64108 7.69423 31.6628 0 0 0 3.8174 -2.70194 0.442325 27
2305 2 9.64698 6.71631 30.5285 0 0 0 -2.29109 9.6673 5.96912 27
2306 2 10.4371 7.69343 31.8628 0 0 0 1.17697 1.69017 -3.36418 27
2303 1 9.61135 7.61358 31.1616 0 0 0 -10.0785 -11.9615 -0.0753221 27
2307 2 9.72764 8.43818 30.5371 0 0 0 -2.663 2.39659 -5.0585 27
2302 2 9.99293 6.03466 35.1977 0 0 0 -2.11973 3.77751 1.04708 26
2301 2 9.9909 6.74345 34.9774 0 0 0 0.961967 -7.85925 -0.909918 26
ITEM: TIMESTEP
227
ITEM: NUMBER OF ATOMS
7
ITEM: BOX BOUNDS pp pp pp
3.1919132607377776e-02 1.9668080867392622e+01
2.4627960184362863e-02 1.5175372039815644e+01
-1.5025196335106529e+01 7.7849030335106562e+01
ITEM: ATOMS id type x y z vx vy vz fx fy fz mol
2304 2 8.64227 7.69252 31.6767 0 0 0 -2.34762 -4.08813 3.05616 27
2305 2 9.62674 6.70788 30.5415 0 0 0 -2.40504 1.19024 -0.118678 27
2306 2 10.4338 7.69018 31.8551 0 0 0 -2.30028 0.203289 -6.20192 27
2303 1 9.59298 7.59612 31.1619 0 0 0 0.814452 7.64719 1.29012 27
2307 2 9.69538 8.43434 30.5287 0 0 0 -3.48524 -5.5089 -0.599724 27
2302 2 9.99261 6.01568 35.2203 0 0 0 -1.48388 29.7001 -9.40847 26
2301 2 10.0132 6.73277 34.9717 0 0 0 -0.785134 -34.2117 8.01897 26
ITEM: TIMESTEP
228
ITEM: NUMBER OF ATOMS
7
ITEM: BOX BOUNDS pp pp pp
3.1919132607377776e-02 1.9668080867392622e+01
2.4627960184362863e-02 1.5175372039815644e+01
-1.5025196335106529e+01 7.7849030335106562e+01
ITEM: ATOMS id type x y z vx vy vz fx fy fz mol
2304 2 8.64114 7.68758 31.6903 0 0 0 -5.25615 -4.15957 4.64988 27
2305 2 9.6088 6.70233 30.5515 0 0 0 -2.19605 -2.69913 -2.6343 27
2306 2 10.4292 7.68782 31.8435 0 0 0 -1.8399 -0.403362 -5.19812 27
2303 1 9.57934 7.5892 31.1633 0 0 0 3.73217 12.2144 0.855084 27
2307 2 9.66709 8.42648 30.5216 0 0 0 -3.62874 -6.37907 -0.243506 27
2302 2 9.99105 6.02698 35.2298 0 0 0 -4.42142 -38.0222 14.3627 26
2301 2 10.03 6.6943 34.9744 0 0 0 1.88271 33.3974 -16.2391 26
ITEM: TIMESTEP
229
ITEM: NUMBER OF ATOMS
7
ITEM: BOX BOUNDS pp pp pp
3.1919132607377776e-02 1.9668080867392622e+01
2.4627960184362863e-02 1.5175372039815644e+01
-1.5025196335106529e+01 7.7849030335106562e+01
ITEM: ATOMS id type x y z vx vy vz fx fy fz mol
2304 2 8.63069 7.6692 31.7311 0 0 0 -4.0442 -2.48242 4.99475 27
2305 2 9.56072 6.68455 30.5728 0 0 0 -1.09202 -0.544729 -0.85605 27
2306 2 10.415 7.68132 31.8071 0 0 0 5.7504 0.714946 1.93993 27
2303 1 9.5506 7.58958 31.168 0 0 0 -5.27843 -5.47682 -1.79441 27
2307 2 9.59103 8.39758 30.5035 0 0 0 -2.9528 3.41501 -6.68853 27
2302 2 9.98074 6.00015 35.2742 0 0 0 -5.16516 -22.0465 8.93791 26
2301 2 10.0747 6.64644 34.9574 0 0 0 2.08227 17.4917 -10.9002 26
ITEM: TIMESTEP
230
ITEM: NUMBER OF ATOMS
7
ITEM: BOX BOUNDS pp pp pp
3.1919132607377776e-02 1.9668080867392622e+01
2.4627960184362863e-02 1.5175372039815644e+01
-1.5025196335106529e+01 7.7849030335106562e+01
ITEM: ATOMS id type x y z vx vy vz fx fy fz mol
2304 2 8.62372 7.66007 31.751 0 0 0 -2.39599 -2.11369 3.92424 27
2305 2 9.54044 6.67696 30.5809 0 0 0 -0.967455 -1.38452 -0.980752 27
2306 2 10.4132 7.67916 31.7936 0 0 0 4.45106 0.653901 1.26357 27
2303 1 9.53537 7.58605 31.1687 0 0 0 -4.93478 -5.4815 -0.522893 27
2307 2 9.55814 8.38813 30.4917 0 0 0 -3.35775 2.84322 -5.63989 27
2302 2 9.97308 5.97442 35.2983 0 0 0 3.66885 31.3025 -19.1159 26
2301 2 10.0942 6.63876 34.9432 0 0 0 -7.17816 -35.5662 17.4154 26
ITEM: TIMESTEP
231
ITEM: NUMBER OF ATOMS
7
ITEM: BOX BOUNDS pp pp pp
3.1919132607377776e-02 1.9668080867392622e+01
2.4627960184362863e-02 1.5175372039815644e+01
-1.5025196335106529e+01 7.7849030335106562e+01
ITEM: ATOMS id type x y z vx vy vz fx fy fz mol
2304 2 8.61662 7.65154 31.7691 0 0 0 -0.973347 -2.16177 2.55224 27
2305 2 9.52437 6.67016 30.5862 0 0 0 -1.22016 -3.52867 -1.69591 27
2306 2 10.4151 7.67802 31.7843 0 0 0 -0.617914 -0.0534137 -2.00191 27
2303 1 9.52008 7.57919 31.1688 0 0 0 -0.187246 1.37786 0.927293 27
2307 2 9.53069 8.38316 30.4784 0 0 0 -4.10894 -1.99271 -1.10403 27
2302 2 9.97009 5.97889 35.3018 0 0 0 -4.4033 -11.2562 3.43471 26
2301 2 10.1035 6.60575 34.9458 0 0 0 0.741817 7.17295 -5.02665 26
ITEM: TIMESTEP
232
ITEM: NUMBER OF ATOMS
7
ITEM: BOX BOUNDS pp pp pp
3.1919132607377776e-02 1.9668080867392622e+01
2.4627960184362863e-02 1.5175372039815644e+01
-1.5025196335106529e+01 7.7849030335106562e+01
ITEM: ATOMS id type x y z vx vy vz fx fy fz mol
2304 2 8.60144 7.63141 31.8078 0 0 0 3.69158 -1.75021 -1.40322 27
2305 2 9.49189 6.65067 30.593 0 0 0 -1.48805 -1.44544 0.963512 27
2306 2 10.4176 7.67579 31.7632 0 0 0 -8.6875 -0.687869 -6.64254 27
2303 1 9.49103 7.56895 31.1708 0 0 0 4.34915 5.64918 -0.607378 27
2307 2 9.47136 8.37003 30.4514 0 0 0 -4.97285 -9.23234 6.956 27
2302 2 9.95608 5.96582 35.3151 0 0 0 -10.2513 -29.4161 15.0168 26
2301 2 10.1224 6.5575 34.941 0 0 0 6.26827 25.773 -16.237 26
ITEM: TIMESTEP
233
ITEM: NUMBER OF ATOMS
7
ITEM: BOX BOUNDS pp pp pp
3.1919132607377776e-02 1.9668080867392622e+01
2.4627960184362863e-02 1.5175372039815644e+01
-1.5025196335106529e+01 7.7849030335106562e+01
ITEM: ATOMS id type x y z vx vy vz fx fy fz mol
2304 2 8.5977 7.6226 31.822 0 0 0 5.68786 -1.1576 -2.92224 27
2305 2 9.47845 6.64228 30.5962 0 0 0 -1.16264 1.28004 2.85681 27
2306 2 10.4136 7.67453 31.7511 0 0 0 -7.09329 -0.0471232 -5.57798 27
2303 1 9.48231 7.56826 31.1712 0 0 0 0.355829 -0.700735 -1.10982 27
2307 2 9.4455 8.3596 30.445 0 0 0 -4.72001 -6.59987 5.54282 27
2302 2 9.94471 5.9437 35.329 0 0 0 2.81534 15.6829 -13.8614 26
2301 2 10.1333 6.55376 34.9298 0 0 0 -6.96595 -19.0408 12.9031 26
ITEM: TIMESTEP
234
ITEM: NUMBER OF ATOMS
7
ITEM: BOX BOUNDS pp pp pp
3.1919132607377776e-02 1.9668080867392622e+01
2.4627960184362863e-02 1.5175372039815644e+01
-1.5025196335106529e+01 7.7849030335106562e+01
ITEM: ATOMS id type x y z vx vy vz fx fy fz mol
2304 2 8.60023 7.60835 31.8384 0 0 0 4.74734 -0.176862 -2.21512 27
2305 2 9.45753 6.63202 30.6048 0 0 0 -0.388242 2.3657 3.52221 27
2306 2 10.3979 7.67265 31.7261 0 0 0 2.14199 1.66304 -0.319505 27
2303 1 9.47027 7.56629 31.1703 0 0 0 -8.75607 -13.275 -0.952006 27
2307 2 9.40181 8.33544 30.4435 0 0 0 -4.16804 3.6379 -2.83333 27
2302 2 9.93229 5.93374 35.3296 0 0 0 -2.48261 -1.84064 -2.1921 26
2301 2 10.1394 6.52192 34.9315 0 0 0 -1.42867 -1.27579 1.17046 26
ITEM: TIMESTEP
235
ITEM: NUMBER OF ATOMS
7
ITEM: BOX BOUNDS pp pp pp
3.1919132607377776e-02 1.9668080867392622e+01
2.4627960184362863e-02 1.5175372039815644e+01
-1.5025196335106529e+01 7.7849030335106562e+01
ITEM: ATOMS id type x y z vx vy vz fx fy fz mol
2304 2 8.60931 7.59316 31.8525 0 0 0 -4.19047 -0.764064 3.92805 27
2305 2 9.43508 6.62446 30.6185 0 0 0 -0.969348 -9.22012 -2.62157 27
2306 2 10.3843 7.67293 31.6994 0 0 0 2.7394 0.903402 -0.00326001 27
2303 1 9.44581 7.54629 31.168 0 0 0 0.410392 1.76575 -2.25509 27
2307 2 9.35038 8.31504 30.438 0 0 0 -4.26131 3.09803 -3.07777 27
2302 2 9.91593 5.92081 35.3273 0 0 0 -9.50095 -20.0655 10.9627 26
2301 2 10.1438 6.48683 34.9349 0 0 0 6.24173 17.2588 -11.8638 26
ITEM: TIMESTEP
236
ITEM: NUMBER OF ATOMS
7
ITEM: BOX BOUNDS pp pp pp
3.1919132607377776e-02 1.9668080867392622e+01
2.4627960184362863e-02 1.5175372039815644e+01
-1.5025196335106529e+01 7.7849030335106562e+01
ITEM: ATOMS id type x y z vx vy vz fx fy fz mol
2304 2 8.61061 7.58518 31.8623 0 0 0 -5.32509 -1.02451 4.55221 27
2305 2 9.4234 6.61388 30.6232 0 0 0 -1.1076 -10.3943 -3.3935 27
2306 2 10.3798 7.67374 31.6864 0 0 0 1.56131 0.542174 -0.907773 27
2303 1 9.43418 7.53784 31.1652 0 0 0 2.66263 5.45277 -2.38502 27
2307 2 9.32209 8.30739 30.4331 0 0 0 -4.06896 1.56841 -2.21263 27
2302 2 9.90085 5.89952 35.3343 0 0 0 5.51725 15.8184 -13.5575 26