LAMMPS data output Created by a python Script - (Written by Roy He)

     460 atoms
     455 bonds
     900 angles
     1305 dihedrals
     300 impropers

     2 atom types
     2 bond types
     3 angle types
     2 dihedral types
     1 improper types

  -128.99823333333333   128.99823333333333 xlo xhi
  -100   100 ylo yhi
  -100   100 zlo zhi

Masses

     1     12.011
     2      1.008

Pair Coeffs 

       1      0.066  3.5000000 
       2      0.030  2.5000000 

Bond Coeffs 

       1   268.0000     1.5290 
       2   340.0000     1.0900 

Angle Coeffs 

       1     58.350    112.700
       2     37.500    110.700
       3     33.000    107.800

Dihedral Coeffs  

       1      1.300     -0.200      0.200      0.000 
       2      0.000      0.000      0.300      0.000 

Improper Coeffs 

       1      0.000      -1       2 

Atoms

     00001     1     1 -0.23900 -21.58691 20.79519 5.44923
     00002     1     1 -0.17950 -20.47024 20.45221 4.37553
     00003     1     1 -0.17890 -19.10955 20.32688 4.95096
     00004     1     1 -0.17970 -18.01025 19.79483 4.00909
     00005     1     1 -0.17990 -16.71577 19.53168 4.67669
     00006     1     1 -0.17990 -15.60552 19.39370 3.68326
     00007     1     1 -0.18020 -14.34670 18.73454 4.27639
     00008     1     1 -0.18030 -13.16406 18.58705 3.34550
     00009     1     1 -0.18050 -11.94580 17.90029 4.00361
     00010     1     1 -0.18070 -10.80786 17.52624 2.96083
     00011     1     1 -0.18050 -9.52339 17.26428 3.71305
     00012     1     1 -0.18070 -8.51887 16.85740 2.65364
     00013     1     1 -0.18070 -7.17527 16.68592 3.38197
     00014     1     1 -0.18080 -6.09400 16.16974 2.44549
     00015     1     1 -0.18100 -4.68086 16.09519 3.12166
     00016     1     1 -0.18100 -3.68750 15.44243 2.15115
     00017     1     1 -0.18080 -2.26353 15.51547 2.67923
     00018     1     1 -0.18070 -1.30734 14.99373 1.70286
     00019     1     1 -0.18070 0.11951 14.89549 2.30575
     00020     1     1 -0.18050 1.22836 14.41228 1.36390
     00021     1     1 -0.18070 2.63727 14.16166 1.92339
     00022     1     1 -0.18050 3.74895 13.69234 0.98888
     00023     1     1 -0.18030 4.96154 13.25520 1.86942
     00024     1     1 -0.18020 6.03541 12.83455 0.75733
     00025     1     1 -0.17990 7.50667 12.80720 1.37581
     00026     1     1 -0.17990 8.50393 12.64015 0.37470
     00027     1     1 -0.17970 9.85021 12.21175 0.86265
     00028     1     1 -0.17890 10.71862 11.78499 -0.32686
     00029     1     1 -0.17950 12.14865 11.42026 0.14625
     00030     1     1 -0.23900 13.08757 10.85771 -1.08941
     00031     1     2 0.08070 -22.59950 20.53942 5.21382
     00032     1     2 0.08070 -21.44929 20.17962 6.30653
     00033     1     2 0.08070 -21.59821 21.83811 5.64665
     00034     1     2 0.08850 -20.68105 19.39255 3.90302
     00035     1     2 0.08850 -20.69702 21.23348 3.56293
     00036     1     2 0.08960 -18.96219 19.42205 5.54416
     00037     1     2 0.08960 -18.68121 21.16739 5.44747
     00038     1     2 0.08960 -18.29591 18.85677 3.56775
     00039     1     2 0.08960 -17.80761 20.42527 3.17065
     00040     1     2 0.08980 -16.83391 18.71116 5.29925
     00041     1     2 0.08980 -16.40073 20.18969 5.35010
     00042     1     2 0.09000 -15.88206 18.76280 2.82537
     00043     1     2 0.09000 -15.41445 20.38965 3.37180
     00044     1     2 0.09000 -14.75403 17.72859 4.73433
     00045     1     2 0.09000 -14.03914 19.32711 5.23956
     00046     1     2 0.09010 -13.44540 17.87264 2.56959
     00047     1     2 0.09010 -12.88697 19.55305 3.01355
     00048     1     2 0.09020 -12.25689 17.06985 4.51621
     00049     1     2 0.09020 -11.42122 18.46340 4.72467
     00050     1     2 0.09030 -11.12618 16.77483 2.23438
     00051     1     2 0.09030 -10.67618 18.46975 2.41989
     00052     1     2 0.09040 -9.87771 16.48903 4.29168
     00053     1     2 0.09040 -9.36051 18.21125 4.12344
     00054     1     2 0.09040 -8.72461 15.88382 2.19129
     00055     1     2 0.09040 -8.51884 17.54068 1.75926
     00056     1     2 0.09040 -7.41988 15.94496 4.11888
     00057     1     2 0.09040 -6.89323 17.64471 3.76679
     00058     1     2 0.09040 -6.36924 15.17175 2.08026
     00059     1     2 0.09040 -6.12097 16.75526 1.53692
     00060     1     2 0.09040 -4.79029 15.63663 4.09576
     00061     1     2 0.09040 -4.24550 17.07856 3.25160
     00062     1     2 0.09040 -4.18432 14.49528 2.01669
     00063     1     2 0.09040 -3.86322 15.94650 1.18077
     00064     1     2 0.09040 -2.25103 15.00794 3.66486
     00065     1     2 0.09040 -2.13151 16.67122 2.80468
     00066     1     2 0.09040 -1.66207 14.04003 1.25205
     00067     1     2 0.09040 -1.41573 15.68370 0.86233
     00068     1     2 0.09040 0.18055 14.43248 3.34046
     00069     1     2 0.09040 0.40978 15.95627 2.56534
     00070     1     2 0.09040 1.07053 13.40359 1.04920
     00071     1     2 0.09040 1.32468 15.05738 0.51945
     00072     1     2 0.09030 2.53420 13.38567 2.67736
     00073     1     2 0.09030 3.00555 15.15311 2.20586
     00074     1     2 0.09020 3.45287 12.72248 0.55002
     00075     1     2 0.09020 3.84409 14.36790 0.11241
     00076     1     2 0.09010 4.60222 12.50955 2.52278
     00077     1     2 0.09010 5.35601 14.14469 2.34299
     00078     1     2 0.09000 5.71326 11.84864 0.36714
     00079     1     2 0.09000 6.03533 13.38222 -0.22629
     00080     1     2 0.09000 7.57637 12.10093 2.19373
     00081     1     2 0.09000 7.64377 13.80833 1.76706
     00082     1     2 0.08980 8.27252 11.67571 -0.25246
     00083     1     2 0.08980 8.62043 13.42074 -0.40387
     00084     1     2 0.08960 9.81731 11.57627 1.66691
     00085     1     2 0.08960 10.25694 13.07762 1.38945
     00086     1     2 0.08960 10.09065 10.92896 -0.70786
     00087     1     2 0.08960 10.77541 12.61077 -1.02944
     00088     1     2 0.08850 12.18469 10.54904 0.98735
     00089     1     2 0.08850 12.72102 12.25662 0.39534
     00090     1     2 0.08070 13.07851 11.67695 -1.82746
     00091     1     2 0.08070 12.38875 10.07700 -1.35024
     00092     1     2 0.08070 14.08652 10.69223 -0.66731
     00093     2     1 -0.23900 -17.63264 -12.36593 37.29079
     00094     2     1 -0.17950 -17.24588 -11.48861 36.02661
     00095     2     1 -0.17890 -17.14451 -12.26810 34.76947
     00096     2     1 -0.17970 -16.97606 -11.45714 33.46846
     00097     2     1 -0.17990 -17.04852 -12.27048 32.23402
     00098     2     1 -0.17990 -16.50738 -11.52527 31.05485
     00099     2     1 -0.18020 -16.91939 -12.14920 29.70878
     00100     2     1 -0.18030 -16.38610 -11.47457 28.46482
     00101     2     1 -0.18050 -16.85667 -12.14334 27.15326
     00102     2     1 -0.18070 -16.50168 -11.29049 25.86142
     00103     2     1 -0.18050 -16.60442 -12.18144 24.64489
     00104     2     1 -0.18070 -16.31302 -11.27665 23.46447
     00105     2     1 -0.18070 -16.30925 -12.18288 22.22194
     00106     2     1 -0.18080 -16.13381 -11.37782 20.94378
     00107     2     1 -0.18100 -16.00518 -12.27677 19.66508
     00108     2     1 -0.18100 -15.96662 -11.38325 18.41813
     00109     2     1 -0.18080 -15.65324 -12.18749 17.16639
     00110     2     1 -0.18070 -15.50674 -11.31812 15.99911
     00111     2     1 -0.18070 -15.37063 -12.14444 14.69232
     00112     2     1 -0.18050 -15.15569 -11.34931 13.39939
     00113     2     1 -0.18070 -15.14655 -12.08807 12.05216
     00114     2     1 -0.18050 -14.92082 -11.30433 10.76212
     00115     2     1 -0.18030 -15.24457 -12.25126 9.56407
     00116     2     1 -0.18020 -14.92712 -11.30724 8.30911
     00117     2     1 -0.17990 -14.71961 -12.17730 6.98706
     00118     2     1 -0.17990 -14.23562 -11.39374 5.90243
     00119     2     1 -0.17970 -14.38005 -12.00231 4.54490
     00120     2     1 -0.17890 -14.10346 -10.94235 3.47197
     00121     2     1 -0.17950 -14.16101 -11.57205 2.05704
     00122     2     1 -0.23900 -13.96924 -10.44459 0.86669
     00123     2     2 0.08070 -18.08461 -11.86749 38.12354
     00124     2     2 0.08070 -18.42898 -13.02258 37.03100
     00125     2     2 0.08070 -16.77023 -12.84467 37.68301
     00126     2     2 0.08850 -18.09735 -10.70228 35.80922
     00127     2     2 0.08850 -16.34307 -10.90281 36.43148
     00128     2     2 0.08960 -18.10790 -12.59710 34.37456
     00129     2     2 0.08960 -16.43197 -13.05881 34.71011
     00130     2     2 0.08960 -17.75167 -10.71938 33.36615
     00131     2     2 0.08960 -16.07118 -10.89136 33.41789
     00132     2     2 0.08980 -18.02567 -12.59713 32.11887
     00133     2     2 0.08980 -16.59217 -13.15222 32.23391
     00134     2     2 0.09000 -16.86617 -10.48614 31.01071
     00135     2     2 0.09000 -15.45596 -11.55477 31.19296
     00136     2     2 0.09000 -18.09341 -12.21032 29.78301
     00137     2     2 0.09000 -16.62088 -13.28241 29.72082
     00138     2     2 0.09010 -16.84843 -10.48759 28.40402
     00139     2     2 0.09010 -15.32889 -11.49379 28.51032
     00140     2     2 0.09020 -17.86344 -12.32500 27.20401
     00141     2     2 0.09020 -16.43854 -13.08527 26.92931
     00142     2     2 0.09030 -17.02468 -10.33187 25.82700
     00143     2     2 0.09030 -15.43793 -11.07799 26.01457
     00144     2     2 0.09040 -17.59691 -12.43190 24.76152
     00145     2     2 0.09040 -15.84713 -12.86785 24.86181
     00146     2     2 0.09040 -17.08947 -10.52530 23.27324
     00147     2     2 0.09040 -15.40265 -10.63236 23.61585
     00148     2     2 0.09040 -17.29140 -12.61364 22.26343
     00149     2     2 0.09040 -15.49726 -12.87282 22.32938
     00150     2     2 0.09040 -16.98537 -10.69648 20.81825
     00151     2     2 0.09040 -15.31410 -10.68702 21.08498
     00152     2     2 0.09040 -16.77411 -13.03738 19.70155
     00153     2     2 0.09040 -15.04002 -12.76589 19.61352
     00154     2     2 0.09040 -16.91626 -10.88772 18.53917
     00155     2     2 0.09040 -15.24340 -10.58125 18.66378
     00156     2     2 0.09040 -16.43340 -12.96972 17.07323
     00157     2     2 0.09040 -14.62309 -12.65985 17.45725
     00158     2     2 0.09040 -16.31377 -10.55304 15.95486
     00159     2     2 0.09040 -14.64081 -10.70423 16.25912
     00160     2     2 0.09040 -16.11296 -12.99515 14.57410
     00161     2     2 0.09040 -14.42306 -12.74765 14.81549
     00162     2     2 0.09040 -15.99870 -10.73609 13.16550
     00163     2     2 0.09040 -14.26743 -10.76050 13.45250
     00164     2     2 0.09030 -16.12346 -12.55358 11.95111
     00165     2     2 0.09030 -14.24532 -12.70885 12.08067
     00166     2     2 0.09020 -15.72878 -10.55776 10.65872
     00167     2     2 0.09020 -13.99496 -10.69392 10.82385
     00168     2     2 0.09010 -16.23715 -12.57914 9.70286
     00169     2     2 0.09010 -14.49068 -13.02751 9.55112
     00170     2     2 0.09000 -15.77353 -10.59643 8.22913
     00171     2     2 0.09000 -14.10805 -10.54081 8.40484
     00172     2     2 0.09000 -15.60408 -12.75754 6.75528
     00173     2     2 0.09000 -13.91521 -12.85592 7.24503
     00174     2     2 0.08980 -14.95632 -10.48533 5.72244
     00175     2     2 0.08980 -13.24234 -10.90922 5.99019
     00176     2     2 0.08960 -15.22731 -12.56903 4.43211
     00177     2     2 0.08960 -13.66146 -12.82422 4.51742
     00178     2     2 0.08960 -14.92818 -10.21504 3.72325
     00179     2     2 0.08960 -13.11309 -10.52978 3.63845
     00180     2     2 0.08850 -15.21070 -12.12037 1.80154
     00181     2     2 0.08850 -13.32625 -12.15888 1.83807
     00182     2     2 0.08070 -12.99249 -9.98357 1.08889
     00183     2     2 0.08070 -14.78809 -9.83693 1.22182
     00184     2     2 0.08070 -13.96035 -10.99568 -0.08183
     00185     3     1 -0.23900 0.24932 -17.42353 -6.90072
     00186     3     1 -0.17950 0.97382 -17.36437 -5.49040
     00187     3     1 -0.17890 1.40685 -16.00108 -5.10026
     00188     3     1 -0.17970 1.93074 -15.83118 -3.65966
     00189     3     1 -0.17990 2.19003 -14.42677 -3.27108
     00190     3     1 -0.17990 3.03871 -14.34671 -2.04147
     00191     3     1 -0.18020 3.00344 -12.95855 -1.37611
     00192     3     1 -0.18030 3.86157 -12.78288 -0.14335
     00193     3     1 -0.18050 3.76016 -11.37227 0.48016
     00194     3     1 -0.18070 4.46141 -11.27176 1.90156
     00195     3     1 -0.18050 4.68598 -9.81438 2.23312
     00196     3     1 -0.18070 5.29617 -9.81236 3.62043
     00197     3     1 -0.18070 5.63016 -8.34522 3.93837
     00198     3     1 -0.18080 6.15450 -8.18635 5.35697
     00199     3     1 -0.18100 6.61855 -6.72335 5.67947
     00200     3     1 -0.18100 7.00349 -6.62800 7.16187
     00201     3     1 -0.18080 7.63881 -5.28538 7.48686
     00202     3     1 -0.18070 8.10567 -5.23997 8.87242
     00203     3     1 -0.18070 8.58523 -3.81588 9.26099
     00204     3     1 -0.18050 9.15151 -3.64693 10.67553
     00205     3     1 -0.18070 9.52072 -2.24245 11.17751
     00206     3     1 -0.18050 10.09648 -2.06849 12.58023
     00207     3     1 -0.18030 10.10288 -0.54249 12.90900
     00208     3     1 -0.18020 10.75879 -0.52803 14.37066
     00209     3     1 -0.17990 11.31080 0.92674 14.72678
     00210     3     1 -0.17990 12.07908 0.92812 15.92443
     00211     3     1 -0.17970 12.30451 2.26622 16.55117
     00212     3     1 -0.17890 12.87256 2.08540 17.96391
     00213     3     1 -0.17950 13.19703 3.46073 18.60034
     00214     3     1 -0.23900 13.71607 3.31662 20.16069
     00215     3     2 0.08070 -0.40792 -18.24743 -7.08886
     00216     3     2 0.08070 -0.45200 -16.62574 -6.96791
     00217     3     2 0.08070 0.96787 -17.45214 -7.68153
     00218     3     2 0.08850 0.22095 -17.68108 -4.63984
     00219     3     2 0.08850 1.73741 -18.21733 -5.59780
     00220     3     2 0.08960 0.58458 -15.33932 -4.82049
     00221     3     2 0.08960 2.10143 -15.48394 -5.72203
     00222     3     2 0.08960 1.21906 -16.19600 -2.94081
     00223     3     2 0.08960 2.82024 -16.38388 -3.44798
     00224     3     2 0.08980 1.27832 -13.93977 -3.19110
     00225     3     2 0.08980 2.62116 -13.83390 -3.94067
     00226     3     2 0.09000 2.71493 -15.04816 -1.25812
     00227     3     2 0.09000 4.01240 -14.58991 -2.38527
     00228     3     2 0.09000 1.85312 -12.75862 -1.22007
     00229     3     2 0.09000 3.27712 -12.15518 -2.18426
     00230     3     2 0.09010 3.44225 -13.41659 0.64033
     00231     3     2 0.09010 4.86616 -12.97685 -0.41410
     00232     3     2 0.09020 2.77606 -11.09444 0.53946
     00233     3     2 0.09020 4.21496 -10.58685 -0.05695
     00234     3     2 0.09030 3.97626 -11.89010 2.66048
     00235     3     2 0.09030 5.44506 -11.71051 1.70128
     00236     3     2 0.09040 3.69705 -9.52796 2.19661
     00237     3     2 0.09040 5.34928 -9.55732 1.46783
     00238     3     2 0.09040 4.60802 -10.13164 4.41320
     00239     3     2 0.09040 6.13662 -10.55224 3.73447
     00240     3     2 0.09040 4.67002 -7.87635 3.83745
     00241     3     2 0.09040 6.37589 -8.02618 3.23908
     00242     3     2 0.09040 5.37556 -8.48077 6.07230
     00243     3     2 0.09040 6.91093 -8.93978 5.52794
     00244     3     2 0.09040 5.86194 -6.03682 5.32265
     00245     3     2 0.09040 7.55678 -6.48348 5.19407
     00246     3     2 0.09040 6.06132 -6.91893 7.59740
     00247     3     2 0.09040 7.63963 -7.51501 7.34932
     00248     3     2 0.09040 6.90652 -4.49927 7.21302
     00249     3     2 0.09040 8.54641 -5.28390 6.74849
     00250     3     2 0.09040 7.34818 -5.65660 9.57331
     00251     3     2 0.09040 8.87350 -6.01724 8.89686
     00252     3     2 0.09040 7.89555 -2.96843 8.95294
     00253     3     2 0.09040 9.45789 -3.59575 8.57768
     00254     3     2 0.09040 8.40970 -3.82310 11.42392
     00255     3     2 0.09040 9.99697 -4.27928 10.82999
     00256     3     2 0.09030 8.60414 -1.65873 11.15698
     00257     3     2 0.09030 10.37443 -1.94174 10.56176
     00258     3     2 0.09020 9.35405 -2.43382 13.31249
     00259     3     2 0.09020 10.97597 -2.72907 12.73443
     00260     3     2 0.09010 9.10712 -0.21106 12.80605
     00261     3     2 0.09010 10.82473 -0.07248 12.25393
     00262     3     2 0.09000 9.97266 -0.87427 15.07078
     00263     3     2 0.09000 11.52767 -1.31037 14.62407
     00264     3     2 0.09000 10.51775 1.66388 14.70752
     00265     3     2 0.09000 12.00831 1.14413 13.92655
     00266     3     2 0.08980 11.44293 0.47286 16.79912
     00267     3     2 0.08980 13.01520 0.33549 15.96354
     00268     3     2 0.08960 11.51496 2.91218 16.44589
     00269     3     2 0.08960 12.99595 2.78606 15.88458
     00270     3     2 0.08960 12.01718 1.51532 18.42827
     00271     3     2 0.08960 13.78377 1.49864 17.89943
     00272     3     2 0.08850 12.25177 4.21661 18.65429
     00273     3     2 0.08850 14.05453 3.90203 18.20147
     00274     3     2 0.08070 14.59944 2.66042 20.08989
     00275     3     2 0.08070 12.83696 2.77145 20.47029
     00276     3     2 0.08070 13.97809 4.32857 20.49349
     00277     4     1 -0.23900 10.24031 5.83505 7.39408
     00278     4     1 -0.17950 8.80270 6.26014 6.87447
     00279     4     1 -0.17890 8.82566 7.39724 5.92328
     00280     4     1 -0.17970 7.49502 7.73276 5.21938
     00281     4     1 -0.17990 7.61181 8.76152 4.16173
     00282     4     1 -0.17990 6.27379 9.31748 3.78863
     00283     4     1 -0.18020 6.29020 10.07499 2.44816
     00284     4     1 -0.18030 4.98260 10.69750 2.01271
     00285     4     1 -0.18050 5.07075 11.42301 0.65082
     00286     4     1 -0.18070 3.65049 11.85457 0.08615
     00287     4     1 -0.18050 3.84930 12.89646 -0.99053
     00288     4     1 -0.18070 2.45852 13.20042 -1.51043
     00289     4     1 -0.18070 2.62390 14.33457 -2.53585
     00290     4     1 -0.18080 1.30658 14.66623 -3.21942
     00291     4     1 -0.18100 1.40932 15.89768 -4.18518
     00292     4     1 -0.18100 0.07717 16.07433 -4.92608
     00293     4     1 -0.18080 0.05562 17.36268 -5.73327
     00294     4     1 -0.18070 -1.25369 17.58323 -6.34715
     00295     4     1 -0.18070 -1.22637 18.79437 -7.31741
     00296     4     1 -0.18050 -2.55498 19.16520 -7.98629
     00297     4     1 -0.18070 -2.57838 20.26511 -9.05892
     00298     4     1 -0.18050 -3.89967 20.64783 -9.72006
     00299     4     1 -0.18030 -3.57574 21.56436 -10.94148
     00300     4     1 -0.18020 -5.04200 21.90236 -11.49165
     00301     4     1 -0.17990 -5.00845 23.19252 -12.43093
     00302     4     1 -0.17990 -6.31573 23.64122 -12.76905
     00303     4     1 -0.17970 -6.40247 24.57354 -13.93412
     00304     4     1 -0.17890 -7.86627 24.72787 -14.36385
     00305     4     1 -0.17950 -7.99005 25.75871 -15.51446
     00306     4     1 -0.23900 -9.53743 25.88014 -16.07638
     00307     4     2 0.08070 10.36229 4.83659 7.76064
     00308     4     2 0.08070 10.91379 5.79905 6.57069
     00309     4     2 0.08070 10.54417 6.46700 8.19102
     00310     4     2 0.08850 8.32341 5.37789 6.25602
     00311     4     2 0.08850 8.22161 6.33104 7.86414
     00312     4     2 0.08960 9.21889 7.14085 4.93740
     00313     4     2 0.08960 9.22339 8.33165 6.24755
     00314     4     2 0.08960 7.08544 6.86832 4.72814
     00315     4     2 0.08960 6.71686 8.04937 5.87948
     00316     4     2 0.08980 8.13825 8.35135 3.36838
     00317     4     2 0.08980 8.19382 9.54549 4.34163
     00318     4     2 0.09000 5.51024 8.53488 3.66609
     00319     4     2 0.09000 6.02820 9.95958 4.59660
     00320     4     2 0.09000 6.74879 9.29231 1.69672
     00321     4     2 0.09000 7.13551 10.88547 2.49290
     00322     4     2 0.09010 4.28721 9.88331 1.80032
     00323     4     2 0.09010 4.68340 11.38528 2.75941
     00324     4     2 0.09020 5.56459 10.82903 -0.02184
     00325     4     2 0.09020 5.60992 12.32923 0.63474
     00326     4     2 0.09030 3.01013 11.00214 -0.15253
     00327     4     2 0.09030 3.20842 12.36498 0.94884
     00328     4     2 0.09040 4.42614 12.31575 -1.61615
     00329     4     2 0.09040 4.27593 13.66198 -0.42160
     00330     4     2 0.09040 1.99645 12.37358 -2.06430
     00331     4     2 0.09040 1.70829 13.37430 -0.68963
     00332     4     2 0.09040 3.31103 13.89768 -3.23506
     00333     4     2 0.09040 2.98486 15.19437 -2.00923
     00334     4     2 0.09040 0.95685 13.79418 -3.78717
     00335     4     2 0.09040 0.54206 14.75985 -2.46060
     00336     4     2 0.09040 2.29832 15.78478 -4.79185
     00337     4     2 0.09040 1.48159 16.83081 -3.63976
     00338     4     2 0.09040 0.02716 15.11238 -5.40999
     00339     4     2 0.09040 -0.69954 15.98976 -4.14111
     00340     4     2 0.09040 0.90543 17.32058 -6.44409
     00341     4     2 0.09040 0.25348 18.15425 -4.89469
     00342     4     2 0.09040 -1.64867 16.65329 -6.81387
     00343     4     2 0.09040 -1.91394 17.68859 -5.48269
     00344     4     2 0.09040 -0.34384 18.82757 -8.03069
     00345     4     2 0.09040 -0.97273 19.68859 -6.67481
     00346     4     2 0.09040 -2.90190 18.39154 -8.63629
     00347     4     2 0.09040 -3.29836 19.40508 -7.25940
     00348     4     2 0.09030 -1.93090 19.92371 -9.86234
     00349     4     2 0.09030 -2.33975 21.18673 -8.51849
     00350     4     2 0.09020 -4.30673 19.75770 -10.23274
     00351     4     2 0.09020 -4.66881 20.89642 -8.95832
     00352     4     2 0.09010 -2.92466 21.01451 -11.56256
     00353     4     2 0.09010 -3.18139 22.49449 -10.55362
     00354     4     2 0.09000 -5.39639 20.99429 -12.01878
     00355     4     2 0.09000 -5.88996 21.97756 -10.75492
     00356     4     2 0.09000 -4.35686 23.04203 -13.28267
     00357     4     2 0.09000 -4.58404 23.96397 -11.79936
     00358     4     2 0.08980 -6.91983 22.75979 -13.25399
     00359     4     2 0.08980 -6.99031 23.98990 -11.96133
     00360     4     2 0.08960 -5.71824 24.37935 -14.67294
     00361     4     2 0.08960 -5.96603 25.51266 -13.58735
     00362     4     2 0.08960 -8.08630 23.65539 -14.63525
     00363     4     2 0.08960 -8.44378 25.07355 -13.51195
     00364     4     2 0.08850 -7.32332 25.49347 -16.49062
     00365     4     2 0.08850 -7.87397 26.74458 -15.19237
     00366     4     2 0.08070 -10.12452 26.16180 -15.18647
     00367     4     2 0.08070 -9.61210 24.82367 -16.28655
     00368     4     2 0.08070 -9.52915 26.67307 -16.83444
     00369     5     1 -0.23900 1.48678 6.15026 -27.82865
     00370     5     1 -0.17950 1.50800 7.08486 -26.54666
     00371     5     1 -0.17890 1.13185 6.38614 -25.29423
     00372     5     1 -0.17970 1.32772 7.17240 -23.98194
     00373     5     1 -0.17990 1.09705 6.37397 -22.75722
     00374     5     1 -0.17990 0.92231 7.25033 -21.55720
     00375     5     1 -0.18020 1.08083 6.48863 -20.22843
     00376     5     1 -0.18030 0.88660 7.29588 -18.96449
     00377     5     1 -0.18050 1.08025 6.47042 -17.67220
     00378     5     1 -0.18070 1.12148 7.36943 -16.36365
     00379     5     1 -0.18050 0.88735 6.48810 -15.15834
     00380     5     1 -0.18070 1.00518 7.41160 -13.96242
     00381     5     1 -0.18070 0.66781 6.55810 -12.72838
     00382     5     1 -0.18080 0.85444 7.34215 -11.43880
     00383     5     1 -0.18100 0.40622 6.54426 -10.16515
     00384     5     1 -0.18100 0.75291 7.35568 -8.90969
     00385     5     1 -0.18080 0.17233 6.71861 -7.65712
     00386     5     1 -0.18070 0.40870 7.55227 -6.47858
     00387     5     1 -0.18070 -0.01689 6.82345 -5.17600
     00388     5     1 -0.18050 0.12987 7.61382 -3.87067
     00389     5     1 -0.18070 -0.14357 6.91410 -2.53033
     00390     5     1 -0.18050 -0.01130 7.69836 -1.22770
     00391     5     1 -0.18030 -0.06538 6.67820 -0.04737
     00392     5     1 -0.18020 0.04575 7.64663 1.22411
     00393     5     1 -0.17990 -0.46239 6.90576 2.54350
     00394     5     1 -0.17990 -0.57149 7.79640 3.64782
     00395     5     1 -0.17970 -0.65205 7.15490 4.99545
     00396     5     1 -0.17890 -0.46121 8.21691 6.08490
     00397     5     1 -0.17950 -0.62864 7.58946 7.49207
     00398     5     1 -0.23900 -0.33064 8.67746 8.69719
     00399     5     2 0.08070 2.08179 6.44374 -28.66889
     00400     5     2 0.08070 1.96158 5.22642 -27.59645
     00401     5     2 0.08070 0.49693 6.06121 -28.20155
     00402     5     2 0.08850 2.60642 7.46377 -26.34547
     00403     5     2 0.08850 0.90426 7.98876 -26.92162
     00404     5     2 0.08960 1.89309 5.69395 -24.92858
     00405     5     2 0.08960 0.16503 5.94275 -25.22259
     00406     5     2 0.08960 2.33477 7.53909 -23.89416
     00407     5     2 0.08960 0.72384 8.05012 -23.90177
     00408     5     2 0.08980 1.86587 5.68378 -22.67158
     00409     5     2 0.08980 0.32776 5.74638 -22.75258
     00410     5     2 0.09000 1.66568 8.06026 -21.51355
     00411     5     2 0.09000 -0.05678 7.64373 -21.66695
     00412     5     2 0.09000 2.13179 5.96741 -20.33506
     00413     5     2 0.09000 0.35602 5.56782 -20.24246
     00414     5     2 0.09010 1.70454 8.01651 -18.90746
     00415     5     2 0.09010 -0.09173 7.69925 -18.98142
     00416     5     2 0.09020 1.93036 5.90463 -17.75190
     00417     5     2 0.09020 0.32686 5.76817 -17.44538
     00418     5     2 0.09030 1.98323 8.04042 -16.33489
     00419     5     2 0.09030 0.22701 7.99003 -16.48594
     00420     5     2 0.09040 1.69558 5.86611 -15.30412
     00421     5     2 0.09040 -0.08494 6.16343 -15.36073
     00422     5     2 0.09040 2.02031 7.78873 -13.78566
     00423     5     2 0.09040 0.42318 8.36736 -14.08327
     00424     5     2 0.09040 1.39646 5.77337 -12.80037
     00425     5     2 0.09040 -0.35370 6.24984 -12.81988
     00426     5     2 0.09040 1.90921 7.62645 -11.33037
     00427     5     2 0.09040 0.37432 8.30436 -11.55152
     00428     5     2 0.09040 0.80820 5.54156 -10.22926
     00429     5     2 0.09040 -0.67252 6.47810 -10.09175
     00430     5     2 0.09040 1.81848 7.43521 -9.05206
     00431     5     2 0.09040 0.40329 8.38354 -9.12845
     00432     5     2 0.09040 0.57878 5.68915 -7.59216
     00433     5     2 0.09040 -0.96667 6.70014 -7.92409
     00434     5     2 0.09040 1.45421 7.93264 -6.44945
     00435     5     2 0.09040 -0.14694 8.46454 -6.70950
     00436     5     2 0.09040 0.32816 5.74572 -5.08558
     00437     5     2 0.09040 -1.12860 6.64895 -5.27876
     00438     5     2 0.09040 1.15202 7.83696 -3.65430
     00439     5     2 0.09040 -0.45181 8.50803 -3.89439
     00440     5     2 0.09030 0.56950 6.09688 -2.46000
     00441     5     2 0.09030 -1.21774 6.70327 -2.53988
     00442     5     2 0.09020 1.02896 8.06026 -1.13963
     00443     5     2 0.09020 -0.61907 8.62750 -1.25881
     00444     5     2 0.09010 0.71167 5.98557 -0.21599
     00445     5     2 0.09010 -1.06536 6.26539 -0.02088
     00446     5     2 0.09000 1.10655 7.96088 1.28741
     00447     5     2 0.09000 -0.40272 8.67711 1.15750
     00448     5     2 0.09000 0.12304 6.01754 2.74599
     00449     5     2 0.09000 -1.47566 6.60774 2.30143
     00450     5     2 0.08980 0.45475 8.33999 3.81626
     00451     5     2 0.08980 -1.29171 8.63732 3.59140
     00452     5     2 0.08960 -0.09791 6.29612 5.08013
     00453     5     2 0.08960 -1.63750 6.68589 5.03510
     00454     5     2 0.08960 0.57918 8.56120 5.81781
     00455     5     2 0.08960 -1.20907 8.99216 5.94906
     00456     5     2 0.08850 0.12154 6.66441 7.71407
     00457     5     2 0.08850 -1.62305 7.37866 7.72840
     00458     5     2 0.08070 -1.04794 9.49281 8.50573
     00459     5     2 0.08070 0.65455 8.91629 8.32539
     00460     5     2 0.08070 -0.53772 8.15740 9.64065

Bonds

     001      1      002      001
     002      1      003      002
     003      1      004      003
     004      1      005      004
     005      1      006      005
     006      1      007      006
     007      1      008      007
     008      1      009      008
     009      1      010      009
     010      1      011      010
     011      1      012      011
     012      1      013      012
     013      1      014      013
     014      1      015      014
     015      1      016      015
     016      1      017      016
     017      1      018      017
     018      1      019      018
     019      1      020      019
     020      1      021      020
     021      1      022      021
     022      1      023      022
     023      1      024      023
     024      1      025      024
     025      1      026      025
     026      1      027      026
     027      1      028      027
     028      1      029      028
     029      1      030      029
     030      2      031      001
     031      2      032      001
     032      2      033      001
     033      2      034      002
     034      2      035      002
     035      2      036      003
     036      2      037      003
     037      2      038      004
     038      2      039      004
     039      2      040      005
     040      2      041      005
     041      2      042      006
     042      2      043      006
     043      2      044      007
     044      2      045      007
     045      2      046      008
     046      2      047      008
     047      2      048      009
     048      2      049      009
     049      2      050      010
     050      2      051      010
     051      2      052      011
     052      2      053      011
     053      2      054      012
     054      2      055      012
     055      2      056      013
     056      2      057      013
     057      2      058      014
     058      2      059      014
     059      2      060      015
     060      2      061      015
     061      2      062      016
     062      2      063      016
     063      2      064      017
     064      2      065      017
     065      2      066      018
     066      2      067      018
     067      2      068      019
     068      2      069      019
     069      2      070      020
     070      2      071      020
     071      2      072      021
     072      2      073      021
     073      2      074      022