LAMMPS data output Created by a python Script - (Written by Roy He)

     1380 atoms
     1365 bonds
     2700 angles
     3915 dihedrals
     900 impropers

     2 atom types
     2 bond types
     3 angle types
     2 dihedral types
     1 improper types

  -128.99823333333333   128.99823333333333 xlo xhi
  -100   100 ylo yhi
  -100   100 zlo zhi

Masses

     1     12.011
     2      1.008

Pair Coeffs 

       1      0.066  3.5000000 
       2      0.030  2.5000000 

Bond Coeffs 

       1   268.0000     1.5290 
       2   340.0000     1.0900 

Angle Coeffs 

       1     58.350    112.700
       2     37.500    110.700
       3     33.000    107.800

Dihedral Coeffs  

       1      1.300     -0.200      0.200      0.000 
       2      0.000      0.000      0.300      0.000 

Improper Coeffs 

       1      0.000      -1       2 

Atoms

     00001     1     1 -0.23900 17.71214 -20.96076 12.03112
     00002     1     1 -0.17950 18.71988 -20.68576 10.83687
     00003     1     1 -0.17890 18.12929 -19.89665 9.72926
     00004     1     1 -0.17970 19.10110 -19.41526 8.63267
     00005     1     1 -0.17990 18.49283 -18.49548 7.64544
     00006     1     1 -0.17990 19.34126 -18.36924 6.41954
     00007     1     1 -0.18020 18.97279 -17.14834 5.55665
     00008     1     1 -0.18030 19.76232 -16.96569 4.27985
     00009     1     1 -0.18050 19.35104 -15.71054 3.47715
     00010     1     1 -0.18070 20.34231 -15.38990 2.27849
     00011     1     1 -0.18050 19.65841 -14.44285 1.31949
     00012     1     1 -0.18070 20.69114 -14.14581 0.25075
     00013     1     1 -0.18070 19.98445 -13.26545 -0.79362
     00014     1     1 -0.18080 20.94631 -12.80188 -1.87645
     00015     1     1 -0.18100 20.23852 -12.00082 -3.02408
     00016     1     1 -0.18100 21.29764 -11.46239 -3.99522
     00017     1     1 -0.18080 20.65877 -10.84031 -5.22679
     00018     1     1 -0.18070 21.67054 -10.42969 -6.20019
     00019     1     1 -0.18070 21.03749 -9.63099 -7.37081
     00020     1     1 -0.18050 21.98748 -9.18841 -8.48963
     00021     1     1 -0.18070 21.46034 -8.28082 -9.61181
     00022     1     1 -0.18050 22.39753 -7.84649 -10.73540
     00023     1     1 -0.18030 21.67998 -6.72497 -11.55035
     00024     1     1 -0.18020 22.75948 -6.41208 -12.69212
     00025     1     1 -0.17990 22.07791 -5.65344 -13.92005
     00026     1     1 -0.17990 22.95624 -5.54367 -15.03411
     00027     1     1 -0.17970 22.57536 -4.53113 -16.06552
     00028     1     1 -0.17890 23.74626 -4.31227 -17.03108
     00029     1     1 -0.17950 23.34365 -3.33151 -18.16151
     00030     1     1 -0.23900 24.60758 -2.98883 -19.16647
     00031     1     2 0.08070 18.12775 -21.17496 12.99422
     00032     1     2 0.08070 17.19219 -20.06190 12.26465
     00033     1     2 0.08070 17.08925 -21.78928 11.80230
     00034     1     2 0.08850 19.61794 -20.02191 11.21552
     00035     1     2 0.08850 19.13703 -21.74114 10.65169
     00036     1     2 0.08960 17.96967 -18.84420 9.97259
     00037     1     2 0.08960 17.28316 -20.28826 9.21237
     00038     1     2 0.08960 19.92606 -18.87011 9.05525
     00039     1     2 0.08960 19.56595 -20.20348 8.08121
     00040     1     2 0.08980 18.29550 -17.59549 8.12070
     00041     1     2 0.08980 17.57640 -18.70228 7.32434
     00042     1     2 0.09000 20.40831 -18.24179 6.65540
     00043     1     2 0.09000 19.17703 -19.27882 5.89885
     00044     1     2 0.09000 19.02982 -16.24920 6.31550
     00045     1     2 0.09000 17.82461 -17.19269 5.32611
     00046     1     2 0.09010 20.79189 -16.73720 4.56155
     00047     1     2 0.09010 19.62130 -17.82774 3.68224
     00048     1     2 0.09020 19.27483 -14.90922 4.11058
     00049     1     2 0.09020 18.41285 -15.74603 2.99679
     00050     1     2 0.09030 21.34671 -15.12363 2.61606
     00051     1     2 0.09030 20.41235 -16.36064 1.77556
     00052     1     2 0.09040 19.50324 -13.67912 1.99329
     00053     1     2 0.09040 18.86891 -15.04928 1.00226
     00054     1     2 0.09040 21.54274 -13.55058 0.60351
     00055     1     2 0.09040 21.20257 -15.06983 -0.13835
     00056     1     2 0.09040 19.66208 -12.43440 -0.19584
     00057     1     2 0.09040 19.20175 -13.85088 -1.23128
     00058     1     2 0.09040 21.72755 -12.17300 -1.43002
     00059     1     2 0.09040 21.51486 -13.65623 -2.21689
     00060     1     2 0.09040 19.56943 -11.27797 -2.57584
     00061     1     2 0.09040 19.66010 -12.65054 -3.66962
     00062     1     2 0.09040 21.87035 -10.86658 -3.30310
     00063     1     2 0.09040 21.97051 -12.32059 -4.18840
     00064     1     2 0.09040 19.98890 -10.02924 -4.87659
     00065     1     2 0.09040 20.03889 -11.74401 -5.63668
     00066     1     2 0.09040 22.51717 -9.89823 -5.71092
     00067     1     2 0.09040 22.14082 -11.37638 -6.47752
     00068     1     2 0.09040 20.29990 -8.82328 -7.06700
     00069     1     2 0.09040 20.32292 -10.34844 -7.87237
     00070     1     2 0.09040 22.71692 -8.49120 -8.13861
     00071     1     2 0.09040 22.46139 -10.02789 -8.94704
     00072     1     2 0.09030 21.12442 -7.36478 -9.13296
     00073     1     2 0.09030 20.74761 -8.90327 -10.16223
     00074     1     2 0.09020 23.23485 -7.27657 -10.29384
     00075     1     2 0.09020 22.88729 -8.72462 -11.20726
     00076     1     2 0.09010 21.44543 -5.96045 -10.86298
     00077     1     2 0.09010 20.83667 -7.17898 -12.05412
     00078     1     2 0.09000 23.56236 -5.81901 -12.21078
     00079     1     2 0.09000 23.40920 -7.25275 -13.06442
     00080     1     2 0.09000 21.63854 -4.71441 -13.60724
     00081     1     2 0.09000 21.28483 -6.32253 -14.23226
     00082     1     2 0.08980 23.95447 -5.02688 -14.69724
     00083     1     2 0.08980 23.31105 -6.46829 -15.53236
     00084     1     2 0.08960 22.12755 -3.69332 -15.67916
     00085     1     2 0.08960 21.69319 -4.94063 -16.56225
     00086     1     2 0.08960 24.51382 -3.93227 -16.29710
     00087     1     2 0.08960 24.01898 -5.26777 -17.46856
     00088     1     2 0.08850 22.95720 -2.25318 -17.76702
     00089     1     2 0.08850 22.70827 -3.76304 -18.86807
     00090     1     2 0.08070 24.92113 -3.97451 -19.54865
     00091     1     2 0.08070 25.24149 -2.65291 -18.35950
     00092     1     2 0.08070 24.20575 -2.34633 -19.95969
     00093     2     1 -0.23900 24.00890 5.12969 19.40416
     00094     2     1 -0.17950 22.96470 5.29599 18.22118
     00095     2     1 -0.17890 21.57932 4.92061 18.59278
     00096     2     1 -0.17970 20.47788 5.24897 17.56435
     00097     2     1 -0.17990 19.10168 5.00815 18.05294
     00098     2     1 -0.17990 18.11913 4.97033 16.92522
     00099     2     1 -0.18020 16.66045 5.12501 17.39347
     00100     2     1 -0.18030 15.59983 5.06479 16.31717
     00101     2     1 -0.18050 14.16370 5.24699 16.85866
     00102     2     1 -0.18070 13.08634 5.43132 15.70647
     00103     2     1 -0.18050 11.71076 5.17874 16.27946
     00104     2     1 -0.18070 10.75077 5.43599 15.13526
     00105     2     1 -0.18070 9.35040 5.08458 15.66498
     00106     2     1 -0.18080 8.27035 5.40244 14.64269
     00107     2     1 -0.18100 6.84046 4.94760 15.09905
     00108     2     1 -0.18100 5.80420 5.42549 14.07311
     00109     2     1 -0.18080 4.42649 4.85220 14.36492
     00110     2     1 -0.18070 3.46703 5.21857 13.32328
     00111     2     1 -0.18070 2.02474 4.79377 13.70847
     00112     2     1 -0.18050 0.92961 5.07330 12.67277
     00113     2     1 -0.18070 -0.53884 4.80429 13.03632
     00114     2     1 -0.18050 -1.63308 5.06873 12.00574
     00115     2     1 -0.18030 -3.00976 4.98175 12.73650
     00116     2     1 -0.18020 -4.03376 5.23999 11.53167
     00117     2     1 -0.17990 -5.49740 4.73281 11.91692
     00118     2     1 -0.17990 -6.38164 4.75694 10.80239
     00119     2     1 -0.17970 -7.83901 4.68533 11.12655
     00120     2     1 -0.17890 -8.66269 5.02233 9.87788
     00121     2     1 -0.17950 -10.17747 4.86844 10.16708
     00122     2     1 -0.23900 -11.10525 5.31997 8.87858
     00123     2     2 0.08070 24.90942 5.70688 19.35845
     00124     2     2 0.08070 23.59277 5.53137 20.29765
     00125     2     2 0.08070 24.32523 4.11890 19.47507
     00126     2     2 0.08850 22.88254 6.43216 17.91634
     00127     2     2 0.08850 23.51204 4.75732 17.36539
     00128     2     2 0.08960 21.09199 5.63430 19.26022
     00129     2     2 0.08960 21.38494 3.92290 18.91410
     00130     2     2 0.08960 20.50106 6.28766 17.28700
     00131     2     2 0.08960 20.57564 4.72995 16.63561
     00132     2     2 0.08980 18.88805 5.71595 18.77968
     00133     2     2 0.08980 18.93770 4.18734 18.58689
     00134     2     2 0.09000 18.27536 5.78386 16.20116
     00135     2     2 0.09000 18.28517 4.02584 16.47159
     00136     2     2 0.09000 16.67935 6.11916 18.02502
     00137     2     2 0.09000 16.45149 4.32155 18.22064
     00138     2     2 0.09010 15.72548 5.94523 15.68424
     00139     2     2 0.09010 15.67757 4.12643 15.83387
     00140     2     2 0.09020 14.14091 6.03866 17.50818
     00141     2     2 0.09020 13.76711 4.44617 17.41868
     00142     2     2 0.09030 13.22988 6.34957 15.13213
     00143     2     2 0.09030 13.31690 4.59055 15.04305
     00144     2     2 0.09040 11.73890 5.92058 16.99379
     00145     2     2 0.09040 11.80955 4.17281 16.54414
     00146     2     2 0.09040 10.68971 6.48796 14.82933
     00147     2     2 0.09040 11.06232 4.93590 14.17628
     00148     2     2 0.09040 9.26858 5.73637 16.51372
     00149     2     2 0.09040 9.34326 4.03651 15.88496
     00150     2     2 0.09040 8.25664 6.48229 14.44557
     00151     2     2 0.09040 8.57824 5.00467 13.68559
     00152     2     2 0.09040 6.69393 5.25545 16.12612
     00153     2     2 0.09040 6.72413 3.87209 15.04263
     00154     2     2 0.09040 5.99036 6.48572 14.13017
     00155     2     2 0.09040 6.23357 5.15822 13.08782
     00156     2     2 0.09040 4.14834 5.16839 15.39052
     00157     2     2 0.09040 4.65086 3.70444 14.32986
     00158     2     2 0.09040 3.55149 6.29387 13.04905
     00159     2     2 0.09040 3.87709 4.73548 12.43289
     00160     2     2 0.09040 1.70943 5.04583 14.76949
     00161     2     2 0.09040 2.05546 3.66729 13.79217
     00162     2     2 0.09040 0.79629 6.12052 12.50856
     00163     2     2 0.09040 1.13293 4.57278 11.75262
     00164     2     2 0.09030 -0.76701 5.44462 13.88437
     00165     2     2 0.09030 -0.60595 3.71646 13.13883
     00166     2     2 0.09020 -1.61030 6.14004 11.73621
     00167     2     2 0.09020 -1.41562 4.54500 11.05072
     00168     2     2 0.09010 -2.97575 5.68518 13.52137
     00169     2     2 0.09010 -3.15432 3.95157 13.03465
     00170     2     2 0.09000 -3.99672 6.32631 11.31579
     00171     2     2 0.09000 -3.75494 4.88200 10.50135
     00172     2     2 0.09000 -5.87361 5.24628 12.79298
     00173     2     2 0.09000 -5.35522 3.68654 12.16030
     00174     2     2 0.08980 -6.39771 5.83431 10.33761
     00175     2     2 0.08980 -6.16203 4.11226 9.92762
     00176     2     2 0.08960 -8.09475 5.16455 11.99643
     00177     2     2 0.08960 -8.00834 3.66525 11.47786
     00178     2     2 0.08960 -8.29744 6.07495 9.70223
     00179     2     2 0.08960 -8.38084 4.34048 9.08139
     00180     2     2 0.08850 -10.57620 5.54349 11.09072
     00181     2     2 0.08850 -10.48211 3.87191 10.22417
     00182     2     2 0.08070 -10.75948 4.66939 8.05813
     00183     2     2 0.08070 -10.66260 6.30324 8.82266
     00184     2     2 0.08070 -12.14535 5.11365 9.15982
     00185     3     1 -0.23900 31.64815 6.65442 13.56104
     00186     3     1 -0.17950 30.16660 7.21555 13.47408
     00187     3     1 -0.17890 29.12789 6.15756 13.48124
     00188     3     1 -0.17970 27.66512 6.62996 13.60687
     00189     3     1 -0.17990 26.68670 5.53258 13.77741
     00190     3     1 -0.17990 25.28995 5.99813 13.51104
     00191     3     1 -0.18020 24.22064 5.03196 14.05327
     00192     3     1 -0.18030 22.77974 5.41268 13.79671
     00193     3     1 -0.18050 21.76421 4.40760 14.38611
     00194     3     1 -0.18070 20.26751 4.93597 14.33186
     00195     3     1 -0.18050 19.32963 3.76592 14.52071
     00196     3     1 -0.18070 17.93863 4.36763 14.51752
     00197     3     1 -0.18070 16.96065 3.18390 14.60410
     00198     3     1 -0.18080 15.51986 3.65677 14.71869
     00199     3     1 -0.18100 14.48355 2.47995 14.68907
     00200     3     1 -0.18100 13.07618 3.03633 14.94311
     00201     3     1 -0.18080 12.01097 1.97081 14.73853
     00202     3     1 -0.18070 10.66637 2.53127 14.87163
     00203     3     1 -0.18070 9.58495 1.41818 14.84710
     00204     3     1 -0.18050 8.12537 1.88060 14.92408
     00205     3     1 -0.18070 7.00732 0.83305 15.04021
     00206     3     1 -0.18050 5.55126 1.28594 15.10487
     00207     3     1 -0.18030 4.68312 0.05072 15.50159
     00208     3     1 -0.18020 3.20710 0.67367 15.48870
     00209     3     1 -0.17990 2.10867 -0.48041 15.39155
     00210     3     1 -0.17990 0.80349 0.04161 15.17100
     00211     3     1 -0.17970 -0.32761 -0.89360 15.45402
     00212     3     1 -0.17890 -1.64932 -0.11635 15.46613
     00213     3     1 -0.17950 -2.84573 -1.08007 15.67035
     00214     3     1 -0.23900 -4.28048 -0.27277 15.79137
     00215     3     2 0.08070 32.40831 7.31066 13.93208
     00216     3     2 0.08070 31.69319 5.89907 14.30955
     00217     3     2 0.08070 31.98243 6.35043 12.60050
     00218     3     2 0.08850 29.92597 7.86087 14.43128
     00219     3     2 0.08850 30.25800 7.94601 12.59078
     00220     3     2 0.08960 28.99693 5.67337 14.45115
     00221     3     2 0.08960 29.12940 5.42944 12.70258
     00222     3     2 0.08960 27.53246 7.26232 14.46644
     00223     3     2 0.08960 27.32525 7.22816 12.78947
     00224     3     2 0.08980 26.82517 5.11914 14.71798
     00225     3     2 0.08980 26.81130 4.71307 13.23097
     00226     3     2 0.09000 25.06916 6.96564 13.98609
     00227     3     2 0.09000 25.24324 6.07847 12.45425
     00228     3     2 0.09000 24.51316 4.90811 15.18758
     00229     3     2 0.09000 24.44326 3.96132 13.63184
     00230     3     2 0.09010 22.57344 6.31832 14.37015
     00231     3     2 0.09010 22.64105 5.48036 12.74966
     00232     3     2 0.09020 22.03281 4.17332 15.34638
     00233     3     2 0.09020 21.69549 3.47166 13.90497
     00234     3     2 0.09030 20.10376 5.81647 14.95764
     00235     3     2 0.09030 20.17667 5.25471 13.28768
     00236     3     2 0.09040 19.67474 3.48254 15.44914
     00237     3     2 0.09040 19.56318 3.21033 13.66719
     00238     3     2 0.09040 17.71793 4.99097 15.39314
     00239     3     2 0.09040 17.77266 5.09219 13.67240
     00240     3     2 0.09040 17.27403 2.70841 15.51382
     00241     3     2 0.09040 17.08065 2.60160 13.71336
     00242     3     2 0.09040 15.39155 4.22346 15.65010
     00243     3     2 0.09040 15.34933 4.41732 13.96932
     00244     3     2 0.09040 14.83127 1.69967 15.35342
     00245     3     2 0.09040 14.37768 2.06305 13.69488
     00246     3     2 0.09040 13.24426 3.47778 15.91207
     00247     3     2 0.09040 12.99669 3.92340 14.28478
     00248     3     2 0.09040 12.24175 1.13666 15.43146
     00249     3     2 0.09040 12.21721 1.65970 13.62965
     00250     3     2 0.09040 10.58843 3.20221 15.75615
     00251     3     2 0.09040 10.61921 3.25030 14.04999
     00252     3     2 0.09040 9.80103 0.51434 15.49910
     00253     3     2 0.09040 9.67586 0.93319 13.83052
     00254     3     2 0.09040 7.90778 2.35519 15.85618
     00255     3     2 0.09040 7.88225 2.52561 14.10959
     00256     3     2 0.09030 7.19155 0.28898 15.96287
     00257     3     2 0.09030 7.01998 0.30429 14.08174
     00258     3     2 0.09020 5.42123 1.92424 15.99736
     00259     3     2 0.09020 5.30470 1.95662 14.25456
     00260     3     2 0.09010 5.06746 -0.30196 16.41804
     00261     3     2 0.09010 4.71834 -0.64897 14.67680
     00262     3     2 0.09000 3.11457 1.28050 16.41132
     00263     3     2 0.09000 2.97559 1.49595 14.75541
     00264     3     2 0.09000 2.17827 -1.16122 16.23079
     00265     3     2 0.09000 2.37133 -1.01494 14.48633
     00266     3     2 0.08980 0.54712 0.82344 16.00768
     00267     3     2 0.08980 0.59922 0.60191 14.23644
     00268     3     2 0.08960 -0.15393 -1.52918 16.23991
     00269     3     2 0.08960 -0.28942 -1.64351 14.66103
     00270     3     2 0.08960 -1.43271 0.59021 16.31827
     00271     3     2 0.08960 -1.76103 0.39378 14.51428
     00272     3     2 0.08850 -2.77709 -1.74765 16.67901
     00273     3     2 0.08850 -3.06593 -1.64218 14.81907
     00274     3     2 0.08070 -4.34779 0.29703 14.84970
     00275     3     2 0.08070 -3.93774 0.34440 16.60838
     00276     3     2 0.08070 -5.06088 -1.04004 15.86727
     00277     4     1 -0.23900 25.37896 38.13025 -27.39577
     00278     4     1 -0.17950 24.62645 36.82625 -26.89507
     00279     4     1 -0.17890 25.01611 36.40152 -25.52903
     00280     4     1 -0.17970 24.18222 35.26887 -24.89627
     00281     4     1 -0.17990 24.50382 35.00030 -23.47674
     00282     4     1 -0.17990 23.96305 33.67748 -23.03368
     00283     4     1 -0.18020 23.91549 33.53018 -21.50170
     00284     4     1 -0.18030 23.41124 32.20743 -20.96971
     00285     4     1 -0.18050 23.37311 32.14016 -19.42605
     00286     4     1 -0.18070 22.61540 30.85531 -18.88085
     00287     4     1 -0.18050 22.98474 30.64986 -17.42975
     00288     4     1 -0.18070 22.17465 29.45056 -16.97990
     00289     4     1 -0.18070 22.61135 29.15747 -15.53473
     00290     4     1 -0.18080 21.79124 28.03390 -14.92022
     00291     4     1 -0.18100 22.28578 27.62501 -13.48915
     00292     4     1 -0.18100 21.32443 26.58548 -12.89758
     00293     4     1 -0.18080 21.85653 26.01400 -11.59292
     00294     4     1 -0.18070 20.99408 24.94470 -11.09034
     00295     4     1 -0.18070 21.42942 24.48648 -9.67276
     00296     4     1 -0.18050 20.63649 23.32942 -9.05423
     00297     4     1 -0.18070 20.92091 22.91056 -7.60352
     00298     4     1 -0.18050 20.14380 21.75144 -6.98551
     00299     4     1 -0.18030 20.43447 21.74425 -5.45180
     00300     4     1 -0.18020 19.59171 20.47061 -4.96760
     00301     4     1 -0.17990 20.09905 19.96813 -3.54001
     00302     4     1 -0.17990 19.51649 18.72258 -3.17414
     00303     4     1 -0.17970 19.60791 18.36189 -1.72650
     00304     4     1 -0.17890 18.69128 17.16821 -1.43308
     00305     4     1 -0.17950 18.83633 16.72050 0.04353
     00306     4     1 -0.23900 17.79148 15.50209 0.42909
     00307     4     2 0.08070 24.91399 38.70818 -28.16777
     00308     4     2 0.08070 25.38040 38.85489 -26.61620
     00309     4     2 0.08070 26.33914 37.87832 -27.77177
     00310     4     2 0.08850 23.46963 37.03895 -26.81076
     00311     4     2 0.08850 24.77450 36.12590 -27.79492
     00312     4     2 0.08960 24.63332 37.05022 -24.73847
     00313     4     2 0.08960 26.03447 36.14988 -25.33906
     00314     4     2 0.08960 23.13304 35.50426 -24.90819
     00315     4     2 0.08960 24.24497 34.33605 -25.41337
     00316     4     2 0.08980 24.17409 35.80516 -22.91259
     00317     4     2 0.08980 25.46005 35.00875 -23.20978
     00318     4     2 0.09000 22.92897 33.50965 -23.36985
     00319     4     2 0.09000 24.62098 32.97088 -23.47330
     00320     4     2 0.09000 23.30618 34.47652 -21.15421
     00321     4     2 0.09000 24.98182 33.76403 -21.07545
     00322     4     2 0.09010 22.35503 32.12954 -21.23419
     00323     4     2 0.09010 24.04361 31.44380 -21.33998
     00324     4     2 0.09020 22.94947 32.99648 -19.05671
     00325     4     2 0.09020 24.30453 32.08395 -18.93460
     00326     4     2 0.09030 21.55262 30.84820 -19.13404
     00327     4     2 0.09030 23.09326 30.05078 -19.45056
     00328     4     2 0.09040 22.63826 31.55744 -17.08680
     00329     4     2 0.09040 24.00871 30.46789 -17.53018
     00330     4     2 0.09040 21.09432 29.63452 -16.92491
     00331     4     2 0.09040 22.22408 28.58823 -17.70152
     00332     4     2 0.09040 22.39589 30.08978 -15.04865
     00333     4     2 0.09040 23.64492 28.87833 -15.56127
     00334     4     2 0.09040 20.73766 28.33674 -14.86198
     00335     4     2 0.09040 21.74971 27.21586 -15.62602
     00336     4     2 0.09040 22.45132 28.52591 -12.91286
     00337     4     2 0.09040 23.21348 27.06715 -13.52905
     00338     4     2 0.09040 20.41619 27.16556 -12.92277
     00339     4     2 0.09040 21.16340 25.85044 -13.71022
     00340     4     2 0.09040 22.00355 26.86396 -10.89639
     00341     4     2 0.09040 22.88524 25.58019 -11.94292
     00342     4     2 0.09040 19.91838 25.22328 -11.15262
     00343     4     2 0.09040 21.06632 24.18491 -11.87251
     00344     4     2 0.09040 21.64644 25.32217 -8.93569
     00345     4     2 0.09040 22.47607 24.07902 -9.79684
     00346     4     2 0.09040 19.61712 23.59616 -8.87775
     00347     4     2 0.09040 20.69484 22.45430 -9.66192
     00348     4     2 0.09030 20.70380 23.77802 -6.98576
     00349     4     2 0.09030 21.93354 22.49530 -7.62662
     00350     4     2 0.09020 19.06886 22.00707 -6.99021
     00351     4     2 0.09020 20.20867 20.84393 -7.62259
     00352     4     2 0.09010 20.15387 22.69441 -5.09063
     00353     4     2 0.09010 21.47560 21.48009 -5.32012
     00354     4     2 0.09000 18.52811 20.78171 -4.96228
     00355     4     2 0.09000 19.48005 19.59902 -5.67140
     00356     4     2 0.09000 19.99601 20.74326 -2.79086
     00357     4     2 0.09000 21.15315 19.76915 -3.69304
     00358     4     2 0.08980 18.34704 18.80785 -3.22023
     00359     4     2 0.08980 19.72503 17.82825 -3.79522
     00360     4     2 0.08960 19.54231 19.16605 -1.09344
     00361     4     2 0.08960 20.66146 18.13487 -1.55000
     00362     4     2 0.08960 17.70152 17.63018 -1.71457
     00363     4     2 0.08960 18.97247 16.34606 -2.08405
     00364     4     2 0.08850 18.60796 17.59471 0.85061
     00365     4     2 0.08850 19.72850 16.21188 0.22922
     00366     4     2 0.08070 18.03922 14.70008 -0.28601
     00367     4     2 0.08070 16.92261 16.06185 0.11665
     00368     4     2 0.08070 18.01751 15.21770 1.46422
     00369     5     1 -0.23900 0.05976 -9.50406 -1.45836
     00370     5     1 -0.17950 1.63053 -9.32747 -1.59586
     00371     5     1 -0.17890 2.40663 -10.10871 -0.60307
     00372     5     1 -0.17970 3.93531 -10.15061 -0.80315
     00373     5     1 -0.17990 4.64079 -11.07600 0.11148
     00374     5     1 -0.17990 6.11096 -10.79991 0.14277
     00375     5     1 -0.18020 6.92733 -11.95795 0.74560
     00376     5     1 -0.18030 8.42141 -11.74600 0.84438
     00377     5     1 -0.18050 9.17579 -12.95636 1.44004
     00378     5     1 -0.18070 10.75340 -12.82729 1.31079
     00379     5     1 -0.18050 11.40281 -13.80381 2.26419
     00380     5     1 -0.18070 12.89282 -13.65660 2.02933
     00381     5     1 -0.18070 13.58019 -14.56570 3.06191
     00382     5     1 -0.18080 15.08775 -14.59524 2.86448
     00383     5     1 -0.18100 15.83570 -15.41649 3.97166
     00384     5     1 -0.18100 17.32670 -15.50311 3.61929
     00385     5     1 -0.18080 18.13093 -16.12414 4.75041
     00386     5     1 -0.18070 19.56395 -16.10268 4.45753
     00387     5     1 -0.18070 20.36997 -16.89737 5.51952
     00388     5     1 -0.18050 21.89423 -16.90591 5.35610
     00389     5     1 -0.18070 22.74794 -17.77966 6.28810
     00390     5     1 -0.18050 24.26686 -17.78344 6.13896
     00391     5     1 -0.18030 24.82986 -18.95324 7.00580
     00392     5     1 -0.18020 26.40765 -18.79857 6.77443
     00393     5     1 -0.17990 27.22248 -19.56202 7.91509
     00394     5     1 -0.17990 28.61514 -19.27560 7.85943
     00395     5     1 -0.17970 29.50350 -20.21835 8.60519
     00396     5     1 -0.17890 30.96487 -19.97005 8.21281
     00397     5     1 -0.17950 31.91200 -20.87653 9.03931
     00398     5     1 -0.23900 33.48819 -20.71424 8.57652
     00399     5     2 0.08070 -0.54163 -9.30112 -2.32052
     00400     5     2 0.08070 -0.16675 -10.53609 -1.33018
     00401     5     2 0.08070 -0.31582 -8.86743 -0.69649
     00402     5     2 0.08850 1.99107 -9.74734 -2.63715
     00403     5     2 0.08850 1.72105 -8.18228 -1.64589
     00404     5     2 0.08960 2.40800 -11.18441 -0.79062
     00405     5     2 0.08960 2.25731 -9.91530 0.43460
     00406     5     2 0.08960 4.18956 -10.48419 -1.79330
     00407     5     2 0.08960 4.41539 -9.19992 -0.71814
     00408     5     2 0.08980 4.39592 -12.04658 -0.15834
     00409     5     2 0.08980 4.34675 -11.10267 1.05940
     00410     5     2 0.09000 6.53312 -10.64404 -0.86121
     00411     5     2 0.09000 6.19426 -9.91834 0.72700
     00412     5     2 0.09000 6.59330 -12.88999 0.10742
     00413     5     2 0.09000 6.47936 -12.21669 1.79717
     00414     5     2 0.09010 8.81379 -11.70257 -0.17332
     00415     5     2 0.09010 8.59134 -10.89336 1.44791
     00416     5     2 0.09020 8.84370 -13.81814 0.99708
     00417     5     2 0.09020 9.04294 -13.13217 2.47137
     00418     5     2 0.09030 11.09773 -12.83392 0.27393
     00419     5     2 0.09030 10.93268 -11.82261 1.70909
     00420     5     2 0.09040 10.98580 -14.65757 1.86598
     00421     5     2 0.09040 11.06725 -13.41495 3.17408
     00422     5     2 0.09040 13.23058 -14.02142 1.05117
     00423     5     2 0.09040 13.23214 -12.58376 2.00371
     00424     5     2 0.09040 13.15157 -15.52192 2.82991
     00425     5     2 0.09040 13.35002 -14.17985 4.03404
     00426     5     2 0.09040 15.32177 -15.02387 1.88130
     00427     5     2 0.09040 15.43774 -13.57824 2.75369
     00428     5     2 0.09040 15.31020 -16.35086 4.11969
     00429     5     2 0.09040 15.86451 -14.88509 4.91517
     00430     5     2 0.09040 17.24321 -15.99073 2.66155
     00431     5     2 0.09040 17.61449 -14.47082 3.33974
     00432     5     2 0.09040 17.70685 -17.13034 4.94261
     00433     5     2 0.09040 17.88133 -15.39272 5.62885
     00434     5     2 0.09040 19.77302 -16.42533 3.41312
     00435     5     2 0.09040 19.78580 -15.03402 4.40222
     00436     5     2 0.09040 19.94545 -17.91404 5.79319
     00437     5     2 0.09040 20.19224 -16.35863 6.49680
     00438     5     2 0.09040 22.19469 -17.40244 4.45911
     00439     5     2 0.09040 22.29041 -15.91564 5.38677
     00440     5     2 0.09030 22.42965 -18.80570 6.12321
     00441     5     2 0.09030 22.63561 -17.32454 7.27736
     00442     5     2 0.09020 24.51927 -18.13936 5.12383
     00443     5     2 0.09020 24.67280 -16.75011 6.17187
     00444     5     2 0.09010 24.35938 -19.83222 6.66225
     00445     5     2 0.09010 24.65489 -18.70140 8.04360
     00446     5     2 0.09000 26.61592 -19.19132 5.75934
     00447     5     2 0.09000 26.83056 -17.76730 6.61600
     00448     5     2 0.09000 26.98696 -20.61894 7.92626
     00449     5     2 0.09000 26.86421 -19.11530 8.83499
     00450     5     2 0.08980 29.02375 -19.52186 6.78732
     00451     5     2 0.08980 28.95681 -18.23357 8.02220
     00452     5     2 0.08960 29.17765 -21.19070 8.59604
     00453     5     2 0.08960 29.31384 -20.02081 9.66238
     00454     5     2 0.08960 30.89543 -20.20199 7.11114
     00455     5     2 0.08960 31.20546 -18.92981 8.40969
     00456     5     2 0.08850 31.67718 -22.06074 8.93789
     00457     5     2 0.08850 32.01716 -20.56114 10.02856
     00458     5     2 0.08070 33.69862 -19.64049 8.71337
     00459     5     2 0.08070 33.27653 -20.95174 7.54469
     00460     5     2 0.08070 34.07612 -21.34116 9.25827
     00461     6     1 -0.23900 -1.05914 9.11011 -20.68025
     00462     6     1 -0.17950 0.40615 8.51755 -20.54161
     00463     6     1 -0.17890 1.40041 9.49846 -20.04408
     00464     6     1 -0.17970 2.79531 8.94471 -19.68873
     00465     6     1 -0.17990 3.69130 9.92949 -19.04218
     00466     6     1 -0.17990 5.11635 9.47451 -19.07077
     00467     6     1 -0.18020 6.01263 10.24305 -18.08235
     00468     6     1 -0.18030 7.47720 9.86637 -18.07159
     00469     6     1 -0.18050 8.30949 10.66444 -17.04239
     00470     6     1 -0.18070 9.78123 10.09562 -16.86171
     00471     6     1 -0.18050 10.63264 11.14876 -16.19065
     00472     6     1 -0.18070 11.99035 10.50173 -16.00378
     00473     6     1 -0.18070 12.90513 11.58962 -15.41658
     00474     6     1 -0.18080 14.28135 11.03891 -15.07696
     00475     6     1 -0.18100 15.28078 12.14389 -14.58719
     00476     6     1 -0.18100 16.59196 11.48172 -14.14323
     00477     6     1 -0.18080 17.66281 12.51694 -13.83748
     00478     6     1 -0.18070 18.94223 11.88111 -13.52344
     00479     6     1 -0.18070 19.98494 12.92092 -13.03295
     00480     6     1 -0.18050 21.38832 12.38809 -12.72195
     00481     6     1 -0.18070 22.43350 13.33051 -12.10524
     00482     6     1 -0.18050 23.83632 12.80989 -11.80449
     00483     6     1 -0.18030 24.56928 13.88227 -10.93870
     00484     6     1 -0.18020 26.01209 13.21297 -10.74579
     00485     6     1 -0.17990 27.08832 14.30841 -10.31029
     00486     6     1 -0.17990 28.41412 13.79218 -10.33040
     00487     6     1 -0.17970 29.43309 14.58678 -9.57912
     00488     6     1 -0.17890 30.72189 13.76862 -9.43485
     00489     6     1 -0.17950 31.82288 14.60594 -8.73588
     00490     6     1 -0.23900 33.19553 13.72872 -8.46906
     00491     6     2 0.08070 -1.87867 8.42149 -20.66197
     00492     6     2 0.08070 -1.29161 9.67667 -19.80973
     00493     6     2 0.08070 -1.15595 9.63928 -21.59534
     00494     6     2 0.08850 0.41679 7.66131 -19.73086
     00495     6     2 0.08850 0.53834 8.01198 -21.56585
     00496     6     2 0.08960 1.28860 9.74300 -18.98577
     00497     6     2 0.08960 1.57795 10.38390 -20.61059
     00498     6     2 0.08960 2.72449 8.12813 -18.99266
     00499     6     2 0.08960 3.32869 8.53345 -20.51810
     00500     6     2 0.08980 3.32586 10.12397 -18.09170
     00501     6     2 0.08980 3.69244 10.85655 -19.39754