122
 Atoms. Timestep: 500
1 -25.962 7.19169e-06 0.0223587
1 -24.6696 2.4566e-05 0.845935
1 -23.4036 2.37314e-05 -0.024725
1 -22.1111 4.2931e-05 0.808011
1 -20.8352 4.65423e-05 -0.0545051
1 -19.5362 6.64714e-05 0.776435
1 -18.2532 7.51202e-05 -0.0825163
1 -16.9496 8.20255e-05 0.747419
1 -15.66 8.12228e-05 -0.106797
1 -14.355 6.63417e-05 0.725418
1 -13.059 5.57309e-05 -0.122992
1 -11.7532 2.78304e-06 0.712116
1 -10.4516 -7.44147e-06 -0.130799
1 -9.14557 -7.4031e-05 0.706759
1 -7.84011 -6.29538e-05 -0.132969
1 -6.53264 -0.000110619 0.704625
1 -5.22486 -7.96671e-05 -0.133543
1 -3.91645 -9.25842e-05 0.704317
1 -2.6076 -4.06366e-05 -0.133332
1 -1.29754 -2.96449e-05 0.70284
1 0.00994475 2.78695e-05 -0.137246
1 1.32143 3.83854e-05 0.696477
1 2.62698 8.36856e-05 -0.145984
1 3.93913 8.16365e-05 0.685643
1 5.24193 9.37695e-05 -0.159802
1 6.5537 7.59497e-05 0.670508
1 7.85385 4.56525e-05 -0.177292
1 9.16502 1.78809e-05 0.651829
1 10.4616 -2.36726e-05 -0.198908
1 11.7709 -3.66559e-05 0.630031
1 13.0642 -6.46305e-05 -0.222443
1 14.3701 -5.87873e-05 0.608337
1 15.6604 -7.23617e-05 -0.244616
1 16.9607 -5.48114e-05 0.589777
1 18.2476 -7.05335e-05 -0.262826
1 19.5405 -4.12364e-05 0.576988
1 20.8225 -5.424e-05 -0.275889
1 22.1076 -2.2427e-05 0.567917
1 23.3817 -3.82855e-05 -0.291211
1 24.6655 -3.50012e-06 0.544826
2 -26.8354 9.29208e-06 0.675266
2 -26.0244 0.882411 -0.614647
2 -26.0244 -0.882409 -0.614622
2 -24.6661 0.873975 1.4975
2 -24.6661 -0.873914 1.49752
2 -23.4132 0.874569 -0.675871
2 -23.4132 -0.874537 -0.675854
2 -22.1048 0.874164 1.45949
2 -22.1048 -0.874066 1.45951
2 -20.8443 0.873961 -0.706224
2 -20.8443 -0.873879 -0.706206
2 -19.5301 0.87376 1.42854
2 -19.5301 -0.873616 1.42855
2 -18.2617 0.873499 -0.734897
2 -18.2617 -0.873347 -0.734887
2 -16.9442 0.873349 1.4
2 -16.9442 -0.873176 1.4
2 -15.6661 0.873396 -0.759486
2 -15.6661 -0.873223 -0.759485
2 -14.3515 0.872978 1.37849
2 -14.3515 -0.872851 1.37847
2 -13.0629 0.873123 -0.775894
2 -13.0629 -0.872982 -0.775923
2 -11.7517 0.872844 1.36542
2 -11.7518 -0.87287 1.36537
2 -10.4533 0.87275 -0.784128
2 -10.4534 -0.872716 -0.784191
2 -9.14534 0.872539 1.36034
2 -9.14538 -0.872744 1.36026
2 -7.84094 0.872664 -0.786399
2 -7.84096 -0.872743 -0.786463
2 -6.53269 0.872326 1.35838
2 -6.53269 -0.872606 1.3583
2 -5.22505 0.872418 -0.787232
2 -5.22503 -0.872537 -0.787287
2 -3.91675 0.87241 1.35807
2 -3.91672 -0.872643 1.35801
2 -2.60815 0.872363 -0.787138
2 -2.60811 -0.872411 -0.787182
2 -1.29661 0.872365 1.35665
2 -1.29657 -0.872461 1.3566
2 0.00851024 0.872494 -0.791041
2 0.00855097 -0.872401 -0.79109
2 1.32379 0.872521 1.35021
2 1.32382 -0.872472 1.35017
2 2.62439 0.872434 -0.799835
2 2.62442 -0.872235 -0.799877
2 3.94296 0.872687 1.33921
2 3.94297 -0.872537 1.33919
2 5.23828 0.872695 -0.813386
2 5.23829 -0.872489 -0.813409
2 6.55827 0.872697 1.32405
2 6.55824 -0.872541 1.32405
2 7.8497 0.872711 -0.83077
2 7.84966 -0.872624 -0.830764
2 9.17051 0.872847 1.30501
2 9.17046 -0.872801 1.30502
2 10.4569 0.872803 -0.852183
2 10.4569 -0.872872 -0.85216
2 11.7771 0.872918 1.28316
2 11.7771 -0.87298 1.28319
2 13.0593 0.87299 -0.875282
2 13.0593 -0.873146 -0.875262
2 14.3763 0.873145 1.26109
2 14.3763 -0.873247 1.26113
2 15.6565 0.873319 -0.897124
2 15.6565 -0.87349 -0.897105
2 16.9663 0.873382 1.24217
2 16.9663 -0.873468 1.24222
2 18.2455 0.873636 -0.914877
2 18.2455 -0.873815 -0.914836
2 19.5449 0.873813 1.22887
2 19.5449 -0.873865 1.22891
2 20.8214 0.874155 -0.9273
2 20.8214 -0.874297 -0.927253
2 22.1115 0.874496 1.21908
2 22.1115 -0.874502 1.21913
2 23.3844 0.873861 -0.942875
2 23.3844 -0.873975 -0.942824
2 24.7213 0.882512 1.18236
2 24.7213 -0.882495 1.18239
2 25.5454 -2.37436e-06 -0.0992987
122
 Atoms. Timestep: 1000
1 -25.654 -0.00222591 0.105816
1 -24.394 -0.00128424 0.976596
1 -23.1085 -0.000238272 0.136094
1 -21.8154 0.000310178 0.970507
1 -20.5514 0.000929645 0.0834775
1 -19.2126 0.000919398 0.858464
1 -17.9618 0.00110586 -0.0574399
1 -16.6024 0.00081056 0.694784
1 -15.3467 0.000728616 -0.223471
1 -13.9855 0.000393908 0.52879
1 -12.7245 0.000219986 -0.384307
1 -11.3759 5.30841e-05 0.388293
1 -10.0892 -3.05134e-05 -0.480992
1 -8.78442 9.36963e-05 0.355694
1 -7.47624 9.67285e-05 -0.465705
1 -6.20586 0.000299312 0.410342
1 -4.89659 0.000237398 -0.396461
1 -3.65453 0.000358165 0.504762
1 -2.34193 0.000184756 -0.286861
1 -1.11806 0.000304458 0.631328
1 0.192065 -2.3448e-05 -0.158473
1 1.42717 0.000147345 0.744263
1 2.71569 -0.000312846 -0.0857269
1 3.99639 7.81602e-05 0.758389
1 5.26347 -0.000473955 -0.115917
1 6.5784 0.000121996 0.691106
1 7.84504 -0.000328886 -0.196795
1 9.18704 0.000221901 0.579993
1 10.4457 -0.000204859 -0.331254
1 11.8041 -2.69452e-05 0.42295
1 13.0754 -0.000658255 -0.476825
1 14.4123 -0.000701382 0.319808
1 15.717 -0.00115744 -0.527271
1 17.0178 -0.00126361 0.319284
1 18.3429 -0.00123907 -0.490144
1 19.6004 -0.00114953 0.410067
1 20.9542 -0.00051939 -0.334179
1 22.1409 0.000286174 0.646817
1 23.5273 0.001227 -0.0169733
1 24.6547 0.00265833 1.01996
2 -26.5498 -0.00295998 0.726274
2 -25.6949 0.879863 -0.532791
2 -25.6935 -0.884355 -0.532868
2 -24.4105 0.873887 1.62622
2 -24.4091 -0.876595 1.62612
2 -23.1134 0.873858 -0.515307
2 -23.1124 -0.873903 -0.515774
2 -21.8057 0.874461 1.62175
2 -21.805 -0.873901 1.6216
2 -20.5806 0.873935 -0.568615
2 -20.5802 -0.871722 -0.569235
2 -19.1802 0.874227 1.51022
2 -19.1801 -0.872842 1.50992
2 -18.0035 0.87351 -0.710134
2 -18.0036 -0.871302 -0.710606
2 -16.5644 0.873113 1.34752
2 -16.5646 -0.872069 1.34737
2 -15.3865 0.873405 -0.875553
2 -15.3868 -0.872055 -0.875978
2 -13.9457 0.872402 1.18194
2 -13.946 -0.871984 1.18201
2 -12.7597 0.873631 -1.03611
2 -12.7598 -0.873301 -1.03632
2 -11.3512 0.872393 1.04143
2 -11.3513 -0.8724 1.04152
2 -10.0964 0.873684 -1.13262
2 -10.0963 -0.873945 -1.13244
2 -8.78541 0.872224 1.00934
2 -8.78534 -0.871943 1.00946
2 -7.46086 0.874683 -1.11614
2 -7.46079 -0.874667 -1.11585
2 -6.22071 0.873656 1.06283
2 -6.22063 -0.872855 1.06305
2 -4.87139 0.875223 -1.0463
2 -4.87144 -0.874882 -1.04609
2 -3.68165 0.875529 1.15409
2 -3.68169 -0.874586 1.15437
2 -2.30817 0.876131 -0.935295
2 -2.30829 -0.875978 -0.935005
2 -1.15141 0.876007 1.28014
2 -1.15161 -0.875064 1.28057
2 0.220677 0.874997 -0.80798
2 0.220505 -0.875427 -0.807466
2 1.40753 0.877225 1.39143
2 1.40725 -0.876456 1.39206
2 2.71731 0.873013 -0.73833
2 2.71723 -0.874261 -0.737514
2 4.00172 0.875898 1.40754
2 4.00155 -0.875016 1.40856
2 5.24635 0.872718 -0.767857
2 5.24636 -0.874555 -0.766723
2 6.59546 0.874222 1.34184
2 6.59555 -0.873136 1.34301
2 7.81757 0.871661 -0.850815
2 7.81769 -0.873089 -0.849778
2 9.21818 0.874821 1.23065
2 9.21838 -0.873559 1.23162
2 10.405 0.871667 -0.984159
2 10.405 -0.872466 -0.983347
2 11.8391 0.872228 1.07586
2 11.8389 -0.871571 1.07639
2 13.0518 0.873235 -1.12894
2 13.0514 -0.874763 -1.12803
2 14.424 0.870934 0.975039
2 14.4237 -0.871664 0.975313
2 15.7212 0.872273 -1.1797
2 15.7208 -0.874412 -1.1793
2 17.0058 0.870575 0.97406
2 17.0058 -0.8728 0.973959
2 18.372 0.872888 -1.14144
2 18.372 -0.87514 -1.1414
2 19.5622 0.870307 1.0639
2 19.5627 -0.872831 1.06347
2 21.0161 0.874342 -0.981801
2 21.0171 -0.875437 -0.981661
2 22.0609 0.873409 1.29488
2 22.0621 -0.872934 1.29498
2 23.6299 0.875681 -0.659895
2 23.6314 -0.87358 -0.659137
2 24.6039 0.884269 1.65904
2 24.6055 -0.878572 1.65965
2 25.6307 0.00341791 0.534083
122
 Atoms. Timestep: 1500
1 -18.3465 0.0705955 -0.797974
1 -17.8999 -0.00308994 0.648145
1 -16.459 -0.477025 0.830336
1 -16.0934 -0.229118 2.31781
1 -14.8376 0.635649 2.54264
1 -14.2684 0.412995 3.91936
1 -12.8776 0.908884 3.97738
1 -12.1978 -0.0377492 4.88884
1 -11.3749 -0.941299 4.01556
1 -10.1715 -0.0954525 3.74939
1 -9.05539 -0.949863 3.27678
1 -7.91225 0.019933 3.27342
1 -7.40807 0.254906 1.90253
1 -5.90948 0.249672 1.98163
1 -5.57842 -0.0750034 0.562164
1 -4.13627 0.131184 0.177459
1 -4.05742 -0.0335854 -1.35155
1 -2.65615 0.106002 -1.96584
1 -2.55747 -0.00897033 -3.51009
1 -1.06859 0.0983993 -3.92126
1 -0.626842 -0.00557356 -5.41012
1 0.932568 -0.0707958 -5.40655
1 1.83728 -0.0561208 -6.68938
1 3.33645 0.0783516 -6.1893
1 4.68696 -0.0566669 -7.0276
1 5.9075 0.0534644 -5.98794
1 7.52665 -0.0512442 -6.13786
1 8.26209 0.0683713 -4.70222
1 9.82516 -0.066348 -4.32862
1 10.0711 -0.0626011 -2.76438
1 11.4828 -0.0300891 -2.093
1 11.278 0.175947 -0.577856
1 12.4902 -0.00109238 0.332862
1 12.0378 0.089881 1.77344
1 13.2093 -0.0866398 2.69568
1 12.7 0.192814 4.06373
1 13.7957 -0.127053 5.0185
1 13.1835 -0.0552613 6.37188
1 14.2888 -0.0152722 7.38724
1 13.6708 -0.0291936 8.76624
2 -19.4198 0.243786 -0.810457
2 -17.8763 0.904337 -1.31658
2 -18.1497 -0.847744 -1.34836
2 -18.03 0.990175 1.08293
2 -18.5598 -0.669999 1.20642
2 -15.7917 0.0513251 0.146992
2 -16.374 -1.53815 0.581677
2 -16.9155 0.262449 2.84071
2 -15.9812 -1.18916 2.82531
2 -14.9924 1.6891 2.29735
2 -14.0853 0.252655 1.85406
2 -14.8826 0.850209 4.70544
2 -14.239 -0.669348 4.00985
2 -12.8545 1.91494 4.39119
2 -12.4262 1.00748 2.99375
2 -11.6124 0.536936 5.60703
2 -12.8752 -0.602731 5.53275
2 -11.8564 -1.23444 3.08245
2 -11.1327 -1.8613 4.53881
2 -10.341 0.691068 3.01228
2 -9.84675 0.39334 4.66761
2 -9.26056 -1.45408 2.32849
2 -8.85764 -1.72394 4.01793
2 -8.13815 0.989545 3.71422
2 -7.14247 -0.403287 3.91053
2 -7.76149 1.22034 1.53336
2 -7.76343 -0.495165 1.19428
2 -5.545 1.2318 2.2884
2 -5.48172 -0.509887 2.63957
2 -6.19512 0.543025 -0.0888179
2 -5.84858 -1.1089 0.346395
2 -3.79462 1.12403 0.472176
2 -3.50356 -0.598611 0.68443
2 -4.70628 0.706894 -1.8205
2 -4.4591 -1.01088 -1.62248
2 -2.24735 1.06778 -1.66201
2 -2.01496 -0.649598 -1.51592
2 -3.14599 0.775392 -3.98702
2 -2.97236 -0.961602 -3.84058
2 -0.69807 1.04223 -3.52141
2 -0.547177 -0.678774 -3.36311
2 -0.987191 0.858089 -5.96756
2 -1.04991 -0.897961 -5.86909
2 1.26681 0.766298 -4.79597
2 1.20707 -0.966149 -4.85027
2 1.57014 0.776901 -7.34142
2 1.69087 -0.971845 -7.26381
2 3.38701 1.04803 -5.69337
2 3.42094 -0.656218 -5.38906
2 4.74115 0.728027 -7.78481
2 4.7081 -1.01232 -7.55419
2 5.74539 1.00244 -5.48092
2 5.67397 -0.694168 -5.23396
2 7.89387 0.729154 -6.80339
2 7.79503 -1 -6.60042
2 7.94331 1.02861 -4.29494
2 7.76331 -0.672644 -4.07674
2 10.3856 0.749101 -4.78559
2 10.238 -0.98112 -4.75461
2 9.53318 0.796566 -2.37244
2 9.54667 -0.926919 -2.35764
2 12.0931 0.780271 -2.49877
2 12.0144 -0.967048 -2.28174
2 10.8622 1.16631 -0.40824
2 10.5161 -0.530034 -0.246493
2 13.2441 0.759329 0.136358
2 12.9558 -0.97248 0.170655
2 11.5659 1.05578 1.94867
2 11.2883 -0.677768 1.97837
2 14.0179 0.603235 2.45181
2 13.5995 -1.1036 2.62459
2 12.3988 1.23653 4.15079
2 11.8283 -0.429749 4.26336
2 14.6062 0.593486 4.91437
2 14.203 -1.12335 4.84829
2 12.5627 0.838192 6.45261
2 12.5278 -0.913498 6.52412
2 14.8858 0.886709 7.25992
2 14.9483 -0.873601 7.26703
2 12.9819 0.80563 8.89183
2 13.1187 -0.953541 8.93345
2 14.4518 0.0492518 9.52149
122
 Atoms. Timestep: 2000
1 -11.9258 1.41698 9.1048
1 -10.4817 1.08466 8.68451
1 -10.6228 0.132193 7.46701
1 -9.2794 0.031704 6.77739
1 -9.29602 -0.594033 5.39662
1 -8.14341 0.0503184 4.60912
1 -6.78217 -0.518144 5.11477
1 -5.52567 -0.0796408 4.33682
1 -5.30863 -0.686699 2.92307
1 -5.22618 0.462581 1.8661
1 -5.81559 0.0602702 0.44863
1 -4.9569 0.214834 -0.812645
1 -4.1117 -0.98706 -1.42699
1 -3.32073 -0.71964 -2.71589
1 -3.89152 -0.717986 -4.1334
1 -2.90295 -0.412847 -5.27405
1 -2.13341 -1.62388 -5.83776
1 -1.8626 -1.53411 -7.34534
1 -1.08947 -0.239592 -7.68286
1 0.465351 -0.387517 -7.38346
1 1.08932 0.720705 -6.53067
1 2.57162 0.54052 -6.69195
1 3.24236 1.81892 -6.44258
1 4.617 1.90971 -7.09066
1 5.46335 0.654868 -6.93786
1 6.96658 0.720501 -6.54378
1 7.21409 -0.0616475 -5.26261
1 6.45831 0.546673 -4.10015
1 5.81879 -0.59429 -3.2608
1 5.58745 -0.0899553 -1.82702
1 6.52385 -0.741139 -0.800876
1 6.445 -0.40639 0.706067
1 5.09419 -0.405934 1.40679
1 5.22673 0.368365 2.74443
1 4.06025 0.177658 3.74631
1 4.56771 0.491653 5.16438
1 3.86345 -0.347393 6.21511
1 4.51624 -0.167299 7.60857
1 3.51509 -0.132276 8.77363
1 4.24444 -0.115689 10.1212
2 -11.9872 2.11353 9.93666
2 -12.4991 1.86962 8.29693
2 -12.407 0.498219 9.44063
2 -9.93848 1.99406 8.41784
2 -9.94962 0.630266 9.52036
2 -11.3696 0.535483 6.79057
2 -11.0577 -0.807579 7.80041
2 -9.02916 1.08332 6.60816
2 -8.44793 -0.386846 7.35218
2 -10.2193 -0.462841 4.82898
2 -9.14334 -1.67716 5.48619
2 -8.16821 -0.254437 3.5625
2 -8.0864 1.13604 4.58676
2 -6.82856 -1.6121 5.18694
2 -6.63118 -0.130141 6.11668
2 -5.81075 0.967591 4.27443
2 -4.63441 -0.0734865 4.97082
2 -6.20717 -1.27729 2.68437
2 -4.45026 -1.36078 2.9706
2 -5.73664 1.38616 2.14437
2 -4.20239 0.812209 1.73974
2 -6.63155 0.754804 0.291912
2 -6.20743 -0.97161 0.493358
2 -5.68961 0.445772 -1.58208
2 -4.35965 1.1322 -0.725227
2 -4.76008 -1.85391 -1.52298
2 -3.35517 -1.2336 -0.677055
2 -2.86919 0.257118 -2.63825
2 -2.52068 -1.45184 -2.67592
2 -4.64616 0.0772724 -4.15586
2 -4.38601 -1.65307 -4.41316
2 -3.49641 -0.00987269 -6.10059
2 -2.21546 0.362197 -4.93285
2 -2.68425 -2.52141 -5.5716
2 -1.1663 -1.67772 -5.32179
2 -1.3147 -2.43569 -7.63836
2 -2.80947 -1.61903 -7.88605
2 -1.50767 0.632926 -7.18368
2 -1.32009 0.0313422 -8.71619
2 0.701991 -1.31374 -6.8636
2 0.908708 -0.434695 -8.3776
2 0.889523 0.703978 -5.45373
2 0.736059 1.66438 -6.95597
2 2.95472 -0.292371 -6.09497
2 2.72355 0.345665 -7.74999
2 3.41007 1.9247 -5.37574
2 2.63762 2.70402 -6.6742
2 4.48996 2.09817 -8.15592
2 5.13967 2.77244 -6.67206
2 5.44325 0.236491 -7.93874
2 4.99702 -0.0798748 -6.29691
2 7.53432 0.195555 -7.31544
2 7.33145 1.74982 -6.53181
2 8.28831 -0.143065 -5.06361
2 6.86411 -1.08443 -5.40588
2 7.19486 1.10664 -3.51804
2 5.70461 1.29769 -4.37043
2 6.59773 -1.3545 -3.22322
2 4.89538 -0.998003 -3.6918
2 5.7856 0.981371 -1.79318
2 4.5427 -0.242457 -1.56721
2 7.52392 -0.588699 -1.20488
2 6.40777 -1.82258 -0.841011
2 7.04216 -1.15049 1.22899
2 6.95581 0.53195 0.904646
2 4.69427 -1.4214 1.50943
2 4.39182 0.152803 0.79093
2 6.19764 0.107628 3.17135
2 5.29757 1.42996 2.50681
2 3.63819 -0.82759 3.6801
2 3.2807 0.892567 3.49027
2 5.64208 0.331115 5.25913
2 4.39912 1.54666 5.3594
2 3.8906 -1.41014 5.96734
2 2.81292 -0.0503344 6.23608
2 5.21025 -1.0044 7.70473
2 5.13134 0.735093 7.6531
2 2.84739 -0.996019 8.72403
2 2.8743 0.745904 8.65499
2 4.88404 -0.992835 10.2245
2 4.85767 0.777017 10.2535
2 3.52033 -0.166593 10.9336
122
 Atoms. Timestep: 2500
1 -3.37741 0.158942 8.43718
1 -4.29096 -0.582897 7.44846
1 -5.71874 -0.0321397 7.4825
1 -6.55429 -0.873363 6.46262
1 -7.87821 -0.0826844 6.21427
1 -7.72048 1.05044 5.15813
1 -7.83247 0.634702 3.72272
1 -7.06964 1.68217 2.83429
1 -7.23884 1.54507 1.33407
1 -6.30661 0.434872 0.797739
1 -6.2421 0.168175 -0.702392
1 -4.78259 0.136489 -1.09228
1 -4.29128 -1.30082 -1.01235
1 -3.21531 -1.59987 -2.08646
1 -3.81536 -1.7058 -3.50849
1 -2.96259 -1.39623 -4.8651
1 -1.45317 -1.90509 -4.81937
1 -0.460204 -1.72398 -5.9332
1 -0.295221 -0.256311 -6.25098
1 0.588385 0.0237947 -7.45597
1 2.07122 0.301472 -7.05839
1 3.01517 -0.595774 -6.21095
1 3.22679 -0.22998 -4.77503
1 4.13139 0.978833 -4.54231
1 5.67935 0.750878 -4.71283
1 6.27656 -0.0362795 -3.57612
1 7.38844 0.608132 -2.74822
1 6.85139 1.63082 -1.71922
1 5.82847 1.13646 -0.696904
1 4.30269 1.51881 -0.868335
1 3.83754 2.05334 0.430297
1 2.37373 2.40676 0.520885
1 1.38646 1.27035 0.29132
1 1.27896 -0.00133646 1.17278
1 1.57338 0.468538 2.60173
1 1.35768 -0.433281 3.83449
1 2.27789 -0.0824643 5.07692
1 3.74249 -0.686192 5.21815
1 3.72532 -2.12284 5.88535
1 4.6608 -3.16854 5.18598
2 -2.40954 -0.334372 8.44075
2 -3.31642 1.22654 8.22127
2 -3.73543 0.103896 9.46968
2 -3.85454 -0.593044 6.44831
2 -4.33661 -1.6447 7.67296
2 -5.70134 1.02075 7.29856
2 -6.19069 -0.224308 8.45411
2 -6.0936 -1.01939 5.51296
2 -6.77973 -1.87702 6.81245
2 -8.26954 0.377861 7.11392
2 -8.67849 -0.784461 5.99972
2 -8.46921 1.81882 5.15613
2 -6.7478 1.49876 5.37801
2 -8.87235 0.591348 3.45097
2 -7.46366 -0.382598 3.52877
2 -7.45563 2.67286 3.09866
2 -6.00093 1.57522 3.05315
2 -6.92571 2.48373 0.873327
2 -8.3105 1.33958 1.19734
2 -5.29201 0.60932 1.18556
2 -6.74283 -0.484275 1.16678
2 -6.67421 0.997162 -1.28007
2 -6.72316 -0.777012 -0.943938
2 -4.72552 0.574989 -2.0883
2 -4.16953 0.846902 -0.560566
2 -5.1187 -1.97892 -1.22401
2 -3.96961 -1.55561 -0.00518407
2 -2.41369 -0.839893 -2.0431
2 -2.70638 -2.53783 -1.85065
2 -4.68248 -1.03909 -3.50843
2 -4.13543 -2.73749 -3.47825
2 -3.4734 -1.87946 -5.72559
2 -2.96437 -0.317425 -5.04546
2 -1.40279 -2.95614 -4.5419
2 -0.969486 -1.27693 -4.05646
2 0.479636 -2.25681 -5.67664
2 -0.83147 -2.16428 -6.86817
2 0.162143 0.313514 -5.46225
2 -1.23628 0.275794 -6.32006
2 0.417687 -0.725503 -8.23415
2 0.094713 0.9004 -7.89084
2 2.20534 1.31253 -6.70517
2 2.58148 0.307506 -7.99692
2 2.57294 -1.59141 -6.1572
2 3.97798 -0.669512 -6.7114
2 3.61302 -1.0832 -4.22249
2 2.28089 -0.0498245 -4.28819
2 3.91849 1.73647 -5.28699
2 3.94344 1.39712 -3.56033
2 6.15762 1.74015 -4.67637
2 5.9585 0.284215 -5.64538
2 5.47337 -0.195219 -2.85463
2 6.6649 -0.991097 -3.94008
2 8.15367 1.10802 -3.35557
2 7.84093 -0.12901 -2.08098
2 7.73533 2.04869 -1.21328
2 6.44958 2.54225 -2.1901
2 6.24006 1.43847 0.311101
2 5.9817 0.062869 -0.59541
2 4.20244 2.21972 -1.71009
2 3.70915 0.69619 -1.27447
2 4.46904 2.9435 0.641911
2 4.0295 1.39876 1.27873
2 2.14006 2.90611 1.47217
2 2.10813 3.22637 -0.154293
2 1.47955 0.941583 -0.739367
2 0.429435 1.83274 0.241166
2 0.301466 -0.516451 1.09886
2 2.06726 -0.716998 0.937776
2 1.04605 1.41352 2.7808
2 2.66487 0.545493 2.65161
2 0.324603 -0.230273 4.0665
2 1.3546 -1.48699 3.54675
2 1.76552 -0.437831 5.98366
2 2.35837 1.00793 5.27227
2 4.31899 -0.740146 4.30216
2 4.16254 -0.0812349 6.01572
2 2.72078 -2.52873 5.83297
2 3.80013 -1.91148 6.96177
2 4.9748 -2.73691 4.22511
2 5.52506 -3.42317 5.8107
2 4.20418 -4.13778 4.97441
122
 Atoms. Timestep: 3000
1 -6.64745 -3.70742 3.1636
1 -7.49356 -3.06812 4.26141
1 -7.14472 -1.58786 4.27337
1 -7.85916 -0.794213 5.37809
1 -7.58687 0.695838 5.3358
1 -7.49967 1.23406 3.89617
1 -8.87371 1.31918 3.15959
1 -8.63676 2.21573 1.86635
1 -8.33208 1.50569 0.588401
1 -6.98043 0.753006 0.714969
1 -6.37248 0.245836 -0.628752
1 -5.49426 1.24886 -1.3625
1 -4.2762 1.65386 -0.544552
1 -3.02107 0.956462 -1.17106
1 -2.73869 -0.494335 -0.820961
1 -1.78903 -1.27229 -1.7966
1 -0.402771 -0.662235 -2.0747
1 0.574764 -1.78296 -2.59495
1 -0.055363 -2.43204 -3.82848
1 0.987253 -2.8738 -4.84816
1 1.17963 -1.83554 -5.87779
1 2.5946 -1.75855 -6.58266
1 3.66388 -0.684696 -6.20368
1 3.25376 0.805049 -6.01776
1 4.41717 1.68303 -5.52474
1 4.88945 1.49468 -4.14017
1 5.0041 2.77637 -3.36587
1 3.61165 3.36573 -2.97476
1 2.72567 2.52757 -2.05619
1 3.31084 2.52643 -0.629446
1 3.96642 1.30773 -0.358515
1 5.16106 1.38756 0.497105
1 4.74946 1.88608 1.83748
1 4.13622 0.870107 2.78901
1 4.92611 -0.441723 2.92281
1 6.15829 -0.552685 3.89012
1 6.29416 -2.0515 4.41063
1 5.25872 -2.49113 5.4706
1 5.32086 -1.85514 6.92473
1 3.95403 -1.79593 7.57257
2 -6.80458 -4.77307 3.21233
2 -6.91124 -3.34403 2.17133
2 -5.58316 -3.68378 3.40523
2 -8.57697 -3.2146 4.08303
2 -7.36053 -3.48353 5.23442
2 -7.41994 -1.2148 3.30245
2 -6.08875 -1.4442 4.50729
2 -8.95103 -0.929122 5.28508
2 -7.57571 -1.09791 6.37104
2 -6.68144 0.932282 5.88331
2 -8.37295 1.27501 5.82068
2 -7.09715 2.23843 3.94045
2 -6.83741 0.747442 3.19192
2 -9.56781 1.81384 3.82277
2 -9.15359 0.310819 2.88169
2 -9.56791 2.75769 1.69882
2 -7.98116 3.00893 2.22074
2 -8.48194 2.18865 -0.274651
2 -9.14461 0.735069 0.556396
2 -6.31403 1.39092 1.29596
2 -7.15953 -0.168551 1.24018
2 -7.16648 -0.237342 -1.22213
2 -5.72664 -0.562358 -0.325817
2 -5.26282 0.824151 -2.35322
2 -6.04028 2.16963 -1.56207
2 -4.38808 1.57714 0.547372
2 -4.1248 2.73362 -0.703247
2 -3.11298 1.2098 -2.2245
2 -2.19573 1.52339 -0.77163
2 -3.71202 -0.963205 -0.691311
2 -2.40856 -0.564753 0.207862
2 -1.56112 -2.31196 -1.43484
2 -2.43661 -1.39632 -2.65543
2 -0.0156375 -0.300703 -1.11339
2 -0.501508 0.202035 -2.7892
2 1.52614 -1.25996 -2.81056
2 0.777088 -2.66653 -1.95008
2 -0.652529 -1.67677 -4.38859
2 -0.882531 -3.11718 -3.59035
2 1.93971 -3.09302 -4.31879
2 0.734385 -3.859 -5.27168
2 0.854487 -0.82888 -5.51186
2 0.397248 -2.04817 -6.6033
2 3.04365 -2.7153 -6.73501
2 2.26908 -1.4627 -7.56652
2 4.34389 -0.606214 -7.01282
2 4.34526 -0.945286 -5.39465
2 2.8665 1.25608 -6.90547
2 2.48995 0.888615 -5.21862
2 4.11944 2.69063 -5.77262
2 5.27019 1.43009 -6.14188
2 4.2175 0.767639 -3.64409
2 5.95222 1.15164 -4.08349
2 5.59028 3.48194 -3.95377
2 5.61453 2.62308 -2.45782
2 3.76499 4.26914 -2.41686
2 2.9958 3.47931 -3.86645
2 2.42094 1.50618 -2.33959
2 1.82426 3.15661 -1.85862
2 3.87192 3.39381 -0.375776
2 2.4365 2.64734 0.0229996
2 4.29503 0.959787 -1.36552
2 3.24384 0.623489 0.00483027
2 5.89989 0.535909 0.428773
2 5.63743 2.23351 0.0249789
2 4.02231 2.68925 1.71218
2 5.63076 2.32508 2.315
2 3.96428 1.2622 3.77767
2 3.19741 0.721632 2.3101
2 5.17525 -0.722612 1.93941
2 4.33071 -1.33088 3.16106
2 7.06407 -0.235679 3.45499
2 5.99805 0.0559005 4.7655
2 7.3467 -2.0991 4.80859
2 6.31155 -2.78042 3.58264
2 4.32014 -2.43333 4.98438
2 5.55559 -3.51652 5.60247
2 5.57026 -0.794969 6.85959
2 6.06678 -2.26989 7.6021
2 3.65335 -2.77121 8.00384
2 3.91056 -1.09225 8.40518
2 3.13197 -1.54458 6.90949
122
 Atoms. Timestep: 3500
1 -11.2293 -4.69186 7.94845
1 -11.8641 -3.9826 6.73899
1 -11.1994 -2.62885 6.35547
1 -11.7967 -2.12605 5.04489
1 -11.5277 -0.574242 4.72733
1 -10.1467 0.0420664 4.33921
1 -9.63382 0.0566942 2.90943
1 -8.61192 1.16099 2.54886
1 -8.18752 1.14946 1.05642
1 -7.25012 -0.0379239 0.702167
1 -6.69092 -0.110783 -0.786869
1 -5.797 1.03072 -1.39889
1 -4.62747 1.43898 -0.497973
1 -3.35079 0.539447 -0.520368
1 -2.00469 1.22727 -0.263665
1 -0.87218 0.951664 -1.3168
1 -0.878247 1.78198 -2.64612
1 0.336078 1.56515 -3.59099
1 0.767249 0.0694397 -3.63538
1 1.79181 -0.402686 -4.77666
1 1.56102 0.311139 -6.18703
1 2.26872 -0.409094 -7.34776
1 3.76879 -0.803361 -7.06782
1 4.58173 0.467756 -6.96634
1 6.11663 0.246793 -6.82641
1 6.65009 -0.0230111 -5.38812
1 7.29437 1.21822 -4.79506
1 6.35842 2.38301 -4.37582
1 5.26674 2.18069 -3.21022
1 5.90239 1.7184 -1.87158
1 4.89614 1.0945 -0.886651
1 5.66928 0.519238 0.35326
1 5.24428 0.978986 1.73407
1 3.94646 0.413743 2.29265
1 4.23093 -0.612642 3.48702
1 5.05511 -0.206037 4.72748
1 5.55422 -1.56611 5.29245
1 6.6493 -1.29184 6.41405
1 8.07564 -1.6318 5.90293
1 9.10069 -0.954053 6.78359
2 -11.6325 -5.69473 8.12497
2 -10.2013 -4.95599 7.76571
2 -11.1513 -4.03564 8.83073
2 -11.7238 -4.73152 5.95972
2 -12.9518 -3.89956 6.88783
2 -10.1294 -2.74646 6.26265
2 -11.3852 -1.85395 7.1
2 -11.5138 -2.84148 4.25838
2 -12.8593 -2.24796 5.01429
2 -11.9183 0.0357751 5.56034
2 -12.2089 -0.363639 3.90883
2 -10.3572 1.10114 4.44889
2 -9.33352 -0.221906 5.00083
2 -10.4577 0.088848 2.19617
2 -9.06338 -0.811785 2.6594
2 -9.11912 2.10626 2.77148
2 -7.7847 1.05287 3.27462
2 -7.62401 2.05408 0.82842
2 -9.13874 1.19314 0.522871
2 -6.3925 -0.0111029 1.4014
2 -7.74005 -0.9672 0.957745
2 -7.50333 -0.341684 -1.47616
2 -6.11665 -1.0091 -0.916143
2 -5.50099 0.743867 -2.45601
2 -6.40841 1.95059 -1.41622
2 -4.90202 1.4938 0.579251
2 -4.33487 2.46669 -0.810488
2 -3.42193 -0.207555 0.238623
2 -3.18921 -0.111983 -1.36213
2 -1.68428 0.650526 0.594901
2 -2.02776 2.293 0.0232803
2 0.120279 1.01953 -0.820772
2 -0.776526 -0.106366 -1.60267
2 -0.861659 2.81911 -2.355
2 -1.7875 1.64719 -3.19646
2 0.0778632 1.94766 -4.59134
2 1.0616 2.27897 -3.19672
2 -0.167551 -0.465994 -3.88671
2 1.1784 -0.486999 -2.78498
2 2.7077 -0.120019 -4.26921
2 1.70478 -1.49105 -4.81337
2 1.81062 1.36174 -6.32365
2 0.514595 0.0998377 -6.47919
2 1.65309 -1.24267 -7.59165
2 2.13651 0.268799 -8.20211
2 4.14865 -1.57287 -7.76215
2 3.86457 -1.33503 -6.08003
2 4.35274 0.928126 -7.93852
2 4.26072 1.13834 -6.19466
2 6.52713 1.17883 -7.24185
2 6.48623 -0.654117 -7.35319
2 5.86457 -0.416823 -4.73414
2 7.35785 -0.851329 -5.30818
2 8.04896 1.59755 -5.46373
2 7.79427 0.899102 -3.86115
2 7.00277 3.11978 -3.92739
2 5.95408 2.88457 -5.24132
2 4.64623 1.371 -3.53571
2 4.57818 3.05271 -3.09523
2 6.62976 0.975742 -2.08714
2 6.43321 2.51136 -1.31876
2 4.355 0.308004 -1.41994
2 4.05175 1.73605 -0.661106
2 5.76443 -0.618957 0.357567
2 6.73703 0.809819 0.173439
2 5.06888 2.07668 1.7087
2 6.15804 0.888515 2.29761
2 3.23252 1.17302 2.54288
2 3.46 -0.1633 1.47805
2 4.50223 -1.5755 3.07507
2 3.22688 -0.761545 3.79405
2 6.00788 0.370372 4.46838
2 4.4498 0.357607 5.50907
2 5.82216 -2.34914 4.54352
2 4.83788 -2.13089 5.84621
2 6.53123 -0.322154 6.8373
2 6.36607 -1.96415 7.19255
2 8.24791 -1.29173 4.88568
2 8.25168 -2.70041 5.90669
2 8.96179 -1.11768 7.86319
2 10.101 -1.25289 6.4594
2 9.01831 0.115013 6.65807
122
 Atoms. Timestep: 4000
1 -14.0524 -1.44873 6.81746
1 -13.5019 -1.85064 5.41281
1 -12.015 -1.46084 5.14822
1 -11.4345 -1.84532 3.76353
1 -10.1102 -1.06801 3.55814
1 -8.92318 -1.88688 4.16367
1 -8.59586 -3.19853 3.44705
1 -8.23535 -3.0977 1.93218
1 -6.83765 -2.63539 1.75817
1 -6.50648 -1.0581 1.87815
1 -5.8145 -0.434812 0.576101
1 -5.47446 1.10442 0.632869
1 -4.29278 1.40192 1.50966
1 -2.97442 1.27345 0.815066
1 -2.93577 2.40708 -0.261395
1 -1.80047 2.19602 -1.28188
1 -1.76374 2.98974 -2.5852
1 -0.518386 2.63176 -3.52568
1 -0.476449 1.15562 -4.11867
1 0.848851 0.604609 -4.75581
1 1.13828 1.37482 -6.03476
1 1.78453 0.481846 -7.15179
1 3.16853 -0.0463143 -6.87851
1 4.11083 0.80721 -6.1275
1 5.51993 0.174998 -5.81178
1 5.52477 -1.13153 -5.02166
1 6.8389 -1.56694 -4.48463
1 7.48598 -0.626888 -3.44521
1 6.52188 -0.361361 -2.26315
1 7.06357 0.647193 -1.25314
1 5.91504 1.26852 -0.439441
1 6.43713 1.645 0.939851
1 5.40752 2.50144 1.68082
1 4.13689 1.76262 2.13654
1 4.25876 0.28969 2.63336
1 5.1654 -0.0148695 3.7673
1 6.10729 -1.13691 3.45354
1 7.29171 -1.16512 4.50609
1 8.59512 -0.300822 4.21049
1 9.71244 -0.287641 5.41419
2 -14.893 -1.96443 7.27644
2 -13.2043 -1.5932 7.46203
2 -14.3495 -0.385199 6.89949
2 -13.6529 -2.91594 5.33072
2 -14.099 -1.37727 4.63138
2 -11.4536 -2.06008 5.83894
2 -11.8354 -0.433544 5.49069
2 -11.4291 -2.93705 3.6072
2 -12.059 -1.43789 2.95385
2 -10.212 -0.0231189 3.89508
2 -9.93915 -1.0503 2.49314
2 -7.99425 -1.35053 4.21826
2 -9.14036 -2.05656 5.2129
2 -9.48074 -3.87849 3.49548
2 -7.73413 -3.68363 3.94832
2 -8.42758 -4.08731 1.58812
2 -8.88097 -2.46113 1.35461
2 -6.4152 -2.88025 0.805152
2 -6.20965 -3.18134 2.42713
2 -7.39255 -0.447101 2.05989
2 -5.89896 -0.855856 2.75058
2 -6.57423 -0.69456 -0.172645
2 -4.9529 -1.06692 0.329746
2 -5.4623 1.50516 -0.406797
2 -6.41769 1.59886 1.01955
2 -4.43927 0.678805 2.34034
2 -4.36926 2.42226 1.89162
2 -2.1491 1.51121 1.47686
2 -2.8552 0.276649 0.430206
2 -2.86587 3.35775 0.389423
2 -3.80141 2.47157 -0.974082
2 -0.80292 2.17133 -0.949762
2 -2.02664 1.2252 -1.64373
2 -1.77403 4.04993 -2.34776
2 -2.64085 2.78123 -3.23274
2 -0.342839 3.39984 -4.29471
2 0.444491 2.64917 -2.97579
2 -1.35289 1.02889 -4.75815
2 -0.619808 0.438756 -3.28943
2 1.6651 0.680812 -4.03921
2 0.594899 -0.47075 -4.91327
2 1.74781 2.23591 -5.8474
2 0.153914 1.78407 -6.29554
2 1.10118 -0.369141 -7.27173
2 1.94455 1.03247 -8.11321
2 3.66222 -0.0899971 -7.84157
2 3.1576 -1.07296 -6.47561
2 4.22259 1.79404 -6.73676
2 3.65624 1.13715 -5.22521
2 6.08816 0.921665 -5.28086
2 5.99326 0.179188 -6.7816
2 4.78224 -0.979007 -4.22118
2 5.04581 -1.91796 -5.53555
2 7.54571 -1.55916 -5.27382
2 6.78917 -2.63438 -4.19008
2 8.47495 -0.860827 -3.0665
2 7.71924 0.439119 -3.62036
2 6.32283 -1.25996 -1.80183
2 5.60162 0.138584 -2.68598
2 7.72165 0.0865851 -0.594813
2 7.62821 1.4712 -1.72487
2 5.06391 0.601413 -0.386892
2 5.59784 2.18461 -0.919644
2 6.88087 0.743226 1.34551
2 7.27575 2.3262 0.718838
2 5.15612 3.45507 1.13235
2 5.77089 2.89276 2.64359
2 3.60038 2.39452 2.8276
2 3.47618 1.69723 1.27967
2 4.6576 -0.241509 1.73818
2 3.29351 -0.116705 2.88811
2 5.6877 0.888015 4.16168
2 4.51056 -0.374058 4.62963
2 6.5594 -1.10215 2.43977
2 5.66533 -2.08084 3.58493
2 6.84914 -0.882767 5.47443
2 7.68334 -2.15948 4.65291
2 8.41572 0.711181 3.97218
2 8.96039 -0.652277 3.3006
2 9.48627 -1.03923 6.15678
2 10.7392 -0.435139 5.13151
2 9.52809 0.631227 5.93023
122
 Atoms. Timestep: 4500
1 -13.8415 -1.23382 3.16957
1 -12.4175 -0.560773 3.25921
1 -11.5379 -1.03385 4.48323
1 -10.1232 -0.424704 4.51295
1 -9.01074 -1.5385 4.56612
1 -9.18386 -2.58858 3.46845
1 -8.7803 -2.04308 2.07341
1 -7.37834 -1.5079 1.97436
1 -6.21561 -2.46103 2.28449
1 -5.23346 -1.79667 3.12544
1 -4.6178 -0.506527 2.54178
1 -3.12866 -0.544382 2.1629
1 -2.85986 -1.4283 0.917072
1 -3.43675 -1.07292 -0.496619
1 -2.81846 0.296044 -0.964673
1 -2.58365 0.358726 -2.47185
1 -1.85739 1.69364 -2.81917
1 -1.16874 1.6972 -4.14441
1 -2.14566 1.68804 -5.4555
1 -1.51992 1.3637 -6.81935
1 -0.46483 2.48032 -7.10661
1 0.534008 1.94484 -8.13357
1 1.57044 0.875875 -7.6619
1 2.91288 1.54718 -7.13782
1 3.69142 0.416138 -6.43059
1 3.35541 0.118597 -4.96889
1 4.19655 -1.03186 -4.48869
1 5.51202 -0.595491 -3.86353
1 5.23619 0.148167 -2.58581
1 6.39313 -0.183177 -1.56291
1 6.19165 0.685282 -0.305915
1 7.24708 0.514591 0.838005
1 6.84465 1.27707 2.08542
1 5.91132 0.469162 3.02754
1 6.55848 -0.364005 4.12792
1 7.18549 0.373147 5.27349
1 7.35079 -0.434637 6.56119
1 7.97119 0.40666 7.66295
1 9.42794 0.760948 7.27872
1 9.60018 2.11831 6.64335
2 -14.54 -0.658586 2.55368
2 -13.7096 -2.17723 2.65697
2 -14.2381 -1.44353 4.16282
2 -11.9125 -0.623721 2.26823
2 -12.5115 0.502823 3.47262
2 -11.5592 -2.13061 4.52102
2 -11.9432 -0.757615 5.44537
2 -10.0674 0.185701 3.58398
2 -9.98791 0.289077 5.34905
2 -9.02024 -2.01479 5.59169
2 -8.03519 -1.04836 4.61053
2 -8.44269 -3.32875 3.68153
2 -10.1595 -3.06207 3.36948
2 -9.50013 -1.2436 1.76346
2 -8.76902 -2.84959 1.34617
2 -7.3317 -1.24405 0.902487
2 -7.36226 -0.623775 2.57473
2 -5.63733 -2.78439 1.45129
2 -6.5731 -3.36702 2.73101
2 -5.58421 -1.46545 4.08013
2 -4.41098 -2.50272 3.31504
2 -4.72183 0.289198 3.26511
2 -5.15688 -0.186895 1.64211
2 -2.77552 0.497054 1.91148
2 -2.59716 -0.933223 3.05186
2 -3.1319 -2.44894 0.968706
2 -1.81017 -1.532 0.933723
2 -3.16381 -1.8666 -1.20205
2 -4.53043 -1.06188 -0.481293
2 -1.85453 0.402116 -0.384165
2 -3.41672 1.15334 -0.662558
2 -1.89266 -0.408714 -2.78168