460
 Atoms. Timestep: 500
1 -21.6185 19.8806 4.83886
1 -20.2675 19.8033 4.12563
1 -19.296 18.7988 4.76292
1 -17.9347 18.8586 4.06174
1 -16.9297 17.792 4.51723
1 -15.5821 18.0125 3.8176
1 -14.5164 16.9547 4.12918
1 -13.1716 17.3503 3.5048
1 -12.0408 16.3483 3.76013
1 -10.7096 16.8536 3.18643
1 -9.53283 15.9015 3.43826
1 -8.23412 16.4069 2.79222
1 -7.03846 15.4843 3.05815
1 -5.75246 15.9493 2.3582
1 -4.57516 15.0065 2.63667
1 -3.28015 15.4253 1.93192
1 -2.10827 14.517 2.32316
1 -0.804746 14.8896 1.61276
1 0.374215 14.047 2.10923
1 1.69127 14.4439 1.43753
1 2.86664 13.6068 1.94119
1 4.16243 13.9354 1.19657
1 5.34931 13.1371 1.73521
1 6.43266 12.9129 0.677047
1 7.4797 11.918 1.17444
1 8.57419 11.6139 0.150359
1 9.58771 10.6326 0.744989
1 10.8573 10.4792 -0.0923555
1 11.9223 9.67554 0.666709
1 13.2908 9.72094 -0.0166737
2 -22.2874 20.5686 4.32284
2 -22.1017 18.9049 4.87157
2 -21.5025 20.2351 5.86341
2 -20.4348 19.5367 3.08271
2 -19.8155 20.7967 4.12199
2 -19.7061 17.7916 4.6885
2 -19.1679 19.0141 5.82531
2 -18.0833 18.7576 2.98643
2 -17.5016 19.8472 4.21938
2 -17.3167 16.7986 4.28598
2 -16.8008 17.8401 5.59923
2 -15.7405 18.0452 2.73835
2 -15.2006 18.9929 4.10313
2 -14.8364 15.9838 3.74948
2 -14.4041 16.8543 5.20881
2 -13.2986 17.4758 2.42955
2 -12.8753 18.3228 3.89717
2 -12.2904 15.3867 3.3113
2 -11.9342 16.1812 4.83152
2 -10.8198 17.0119 2.11272
2 -10.4766 17.8246 3.62186
2 -9.77179 14.915 3.03799
2 -9.38827 15.7799 4.5113
2 -8.38039 16.5026 1.71579
2 -8.00653 17.4056 3.16612
2 -7.28092 14.4747 2.72489
2 -6.86353 15.4252 4.13316
2 -5.9266 16.0105 1.28351
2 -5.49896 16.9557 2.69344
2 -4.84256 13.996 2.32652
2 -4.40084 14.9649 3.71203
2 -3.42466 15.3955 0.85172
2 -3.03827 16.4564 2.19179
2 -2.35424 13.4789 2.09514
2 -1.95628 14.5742 3.40016
2 -0.9245 14.7597 0.53739
2 -0.589061 15.9445 1.78014
2 0.169672 12.9927 1.92002
2 0.475598 14.1622 3.18782
2 1.59372 14.3191 0.358712
2 1.89592 15.4996 1.61538
2 2.63166 12.5493 1.81358
2 3.00406 13.7739 3.00928
2 4.02318 13.7182 0.138674
2 4.3793 15.0021 1.26547
2 5.00264 12.1751 2.10542
2 5.76712 13.6519 2.60102
2 5.9824 12.5204 -0.234336
2 6.90423 13.8618 0.419297
2 6.99129 10.9839 1.44575
2 7.93291 12.3083 2.08638
2 8.14101 11.1974 -0.758872
2 9.07304 12.5423 -0.128576
2 9.11987 9.65913 0.891702
2 9.87015 10.9935 1.7334
2 10.6244 9.9986 -1.04252
2 11.2512 11.4683 -0.326836
2 11.5995 8.64008 0.774697
2 12.0298 10.0757 1.67504
2 13.6578 10.7448 -0.0988764
2 13.2456 9.29534 -1.0189
2 14.0257 9.15215 0.552973
1 -16.2213 -11.3844 36.1243
1 -16.2686 -10.5675 34.831
1 -16.14 -11.4451 33.5811
1 -16.1083 -10.6216 32.2904
1 -16.0001 -11.5036 31.0407
1 -15.8825 -10.678 29.755
1 -15.8064 -11.5494 28.4956
1 -15.6207 -10.7083 27.2272
1 -15.5805 -11.5534 25.9483
1 -15.3953 -10.6926 24.6922
1 -15.3204 -11.5227 23.4042
1 -15.1381 -10.6455 22.1584
1 -15.0205 -11.4595 20.8632
1 -14.8423 -10.5648 19.6282
1 -14.7888 -11.3594 18.316
1 -14.6336 -10.4532 17.087
1 -14.6474 -11.241 15.7707
1 -14.3692 -10.3556 14.549
1 -14.4112 -11.1456 13.2347
1 -14.0247 -10.2963 12.0173
1 -14.1794 -11.0673 10.7018
1 -13.7342 -10.2558 9.47997
1 -13.9574 -11.0222 8.17168
1 -13.5046 -10.2337 6.9382
1 -13.7356 -11.0172 5.64222
1 -13.3212 -10.2285 4.39697
1 -13.4704 -11.0573 3.11746
1 -13.0478 -10.2777 1.87035
1 -13.0725 -11.1457 0.608224
1 -12.6562 -10.3668 -0.640479
2 -16.3507 -10.7387 36.9934
2 -17.0117 -12.1349 36.1449
2 -15.2661 -11.8978 36.2314
2 -17.2039 -10.0084 34.7936
2 -15.4647 -9.83073 34.8485
2 -16.9732 -12.1479 33.5437
2 -15.2295 -12.0418 33.6479
2 -17.0078 -10.0085 32.2261
2 -15.2621 -9.93502 32.3219
2 -16.874 -12.1523 30.9804
2 -15.131 -12.1553 31.1322
2 -16.7372 -10.0058 29.6789
2 -14.9943 -10.0495 29.8141
2 -16.7156 -12.1446 28.411
2 -14.9778 -12.2512 28.5887
2 -16.4333 -9.98519 27.1526
2 -14.6975 -10.1346 27.3081
2 -16.5041 -12.1263 25.8608
2 -14.7672 -12.2763 26.0171
2 -16.2193 -9.98218 24.6174
2 -14.4827 -10.1039 24.7913
2 -16.2297 -12.1156 23.2985
2 -14.4923 -12.228 23.4766
2 -15.9803 -9.95791 22.0771
2 -14.2451 -10.0318 22.2783
2 -15.9138 -12.0721 20.7402
2 -14.1769 -12.1462 20.9396
2 -15.6649 -9.85079 19.5812
2 -13.9281 -9.97995 19.7341
2 -15.6998 -11.9499 18.2151
2 -13.9592 -12.0659 18.3534
2 -15.4362 -9.71529 17.0726
2 -13.6993 -9.89743 17.1676
2 -15.6143 -11.7306 15.6525
2 -13.899 -12.032 15.8148
2 -15.1 -9.54784 14.5091
2 -13.3905 -9.88853 14.6577
2 -15.4135 -11.5499 13.0918
2 -13.7363 -11.9986 13.3021
2 -14.6462 -9.40147 11.9854
2 -12.9932 -9.95952 12.1234
2 -15.2225 -11.3612 10.58
2 -13.5982 -11.9882 10.75
2 -14.2852 -9.3153 9.44733
2 -12.6788 -9.99958 9.57786
2 -15.0155 -11.2675 8.07466
2 -13.4187 -11.9695 8.21341
2 -14.0454 -9.28799 6.89258
2 -12.4462 -9.98817 7.03067
2 -14.7883 -11.2891 5.56272
2 -13.173 -11.9497 5.68371
2 -13.9236 -9.32341 4.32022
2 -12.2842 -9.90908 4.50092
2 -14.5052 -11.3835 3.01018
2 -12.8638 -11.9589 3.20323
2 -13.7064 -9.41857 1.74038
2 -12.0417 -9.88259 2.01621
2 -14.0735 -11.5515 0.458672
2 -12.4057 -11.9988 0.735795
2 -11.6436 -9.97596 -0.541275
2 -13.3274 -9.5278 -0.824014
2 -12.6799 -11.0088 -1.52134
1 0.00099083 -17.2244 -7.44062
1 0.318501 -17.0264 -5.95664
1 0.769824 -15.5959 -5.64163
1 1.16266 -15.419 -4.17223
1 1.59518 -13.9828 -3.85395
1 2.06966 -13.8279 -2.40507
1 2.47516 -12.3892 -2.06333
1 3.01195 -12.2706 -0.631985
1 3.38797 -10.834 -0.250491
1 3.92298 -10.7373 1.18397
1 4.33108 -9.31069 1.57302
1 4.86257 -9.22891 3.01026
1 5.30898 -7.81459 3.40279
1 5.83638 -7.7479 4.84306
1 6.22363 -6.32564 5.27096
1 6.73035 -6.26404 6.71829
1 7.05492 -4.83274 7.16491
1 7.67871 -4.77697 8.56533
1 7.97526 -3.34049 9.01457
1 8.70218 -3.2784 10.3636
1 8.89226 -1.83868 10.8537
1 9.67372 -1.7587 12.1697
1 9.7965 -0.318393 12.6787
1 10.5873 -0.22165 13.9875
1 10.6982 1.22216 14.4872
1 11.4537 1.32372 15.8151
1 11.6374 2.77658 16.2639
1 12.403 2.87943 17.5849
1 12.6975 4.33163 17.9738
1 13.4605 4.43521 19.2953
2 -0.350682 -18.2394 -7.62777
2 -0.775648 -16.535 -7.7723
2 0.883832 -17.0598 -8.0578
2 -0.563469 -17.2728 -5.36492
2 1.0975 -17.7315 -5.66462
2 -0.0315695 -14.8992 -5.89045
2 1.61942 -15.3352 -6.2738
2 0.322965 -15.6957 -3.53391
2 1.97749 -16.1026 -3.93272
2 0.762199 -13.3051 -4.0409
2 2.39778 -13.6882 -4.53037
2 1.27698 -14.1503 -1.72991
2 2.91619 -14.4923 -2.23363
2 1.61569 -11.7306 -2.18855
2 3.23717 -12.0499 -2.76471
2 2.26079 -12.6411 0.066056
2 3.88585 -12.9124 -0.52128
2 2.51496 -10.189 -0.354663
2 4.14028 -10.4597 -0.945285
2 3.16288 -11.0983 1.87757
2 4.78411 -11.3976 1.29189
2 3.47422 -8.64442 1.46669
2 5.09473 -8.95249 0.882431
2 4.08871 -9.56748 3.69952
2 5.70256 -9.91468 3.12292
2 4.46893 -7.12858 3.2934
2 6.08417 -7.47355 2.71582
2 5.07484 -8.13171 5.52232
2 6.70179 -8.40384 4.94248
2 5.35938 -5.6696 5.16417
2 6.99334 -5.94238 4.60046
2 5.98111 -6.68838 7.38714
2 7.62145 -6.88478 6.81264
2 6.14422 -4.23362 7.14825
2 7.74195 -4.37847 6.45109
2 7.00824 -5.24949 9.28314
2 8.60293 -5.35472 8.57149
2 7.03928 -2.78562 9.08051
2 8.58278 -2.84188 8.25966
2 8.13724 -3.84009 11.1075
2 9.67405 -3.7643 10.2741
2 7.91483 -1.37313 10.9845
2 9.41517 -1.26092 10.0915
2 9.17657 -2.36816 12.9252
2 10.6686 -2.18223 12.0286
2 8.79931 0.0970793 12.8275
2 10.2806 0.293237 11.9165
2 10.1036 -0.833138 14.7498
2 11.5865 -0.632887 13.8408
2 9.70056 1.64531 14.6064
2 11.2067 1.82357 13.7337
2 10.9169 0.768053 16.584
2 12.431 0.852477 15.7106
2 10.663 3.25432 16.369
2 12.175 3.32469 15.4902
2 11.8281 2.39556 18.3748
2 13.3424 2.33165 17.5002
2 11.7636 4.88855 18.0559
2 13.2794 4.81212 17.1868
2 14.419 3.9196 19.2378
2 12.8897 4.00006 20.1155
2 13.6584 5.4777 19.5458
1 9.36743 4.22171 8.30762
1 9.11466 5.4759 7.46813
1 8.03566 5.24852 6.40168
1 7.80026 6.49419 5.54718
1 6.81795 6.24048 4.39684
1 6.3993 7.54671 3.71772
1 5.56201 7.34102 2.45176
1 4.8099 8.62239 2.07565
1 4.43364 8.69745 0.591915
1 3.55158 9.91535 0.300759
1 3.2706 10.1565 -1.18405
1 2.22124 11.261 -1.35286
1 1.88352 11.5961 -2.80935
1 0.724466 12.5997 -2.88053
1 0.203077 12.8481 -4.30262
1 -0.746759 14.0543 -4.35271
1 -1.22616 14.4017 -5.76894
1 -1.97827 15.7409 -5.80627
1 -2.36143 16.1742 -7.22796
1 -3.06288 17.5408 -7.2658
1 -3.36415 17.9916 -8.70083
1 -4.04243 19.366 -8.77818
1 -4.27821 19.7863 -10.2329
1 -5.00916 21.1288 -10.3761
1 -5.28925 21.4397 -11.8501
1 -6.10128 22.7207 -12.0766
1 -6.36162 22.9419 -13.573
1 -7.16881 24.2115 -13.8578
1 -7.42097 24.4138 -15.3585
1 -8.20346 25.6978 -15.6499
2 10.1066 4.41751 9.0855
2 8.45445 3.88044 8.79574
2 9.74499 3.40456 7.69503
2 8.81686 6.2945 8.1247
2 10.0485 5.78108 6.99482
2 7.09909 4.95516 6.87834
2 8.33274 4.41996 5.75796
2 7.42179 7.29458 6.1847
2 8.74862 6.84337 5.13851
2 5.92961 5.73584 4.77782
2 7.27461 5.56974 3.66848
2 5.82668 8.14061 4.43182
2 7.28275 8.13248 3.46552
2 4.84078 6.53544 2.59681
2 6.21767 7.03353 1.63803
2 3.91329 8.6998 2.69211
2 5.42495 9.4867 2.31955
2 3.91591 7.78569 0.293943
2 5.34308 8.7549 -0.00650102
2 2.61045 9.81446 0.838037
2 4.0344 10.8039 0.694525
2 2.91395 9.24106 -1.65198
2 4.19326 10.4341 -1.69444
2 1.31022 10.9514 -0.841438
2 2.56153 12.1658 -0.851307
2 1.61097 10.6885 -3.3434
2 2.76101 12.0065 -3.31131
2 -0.102216 12.2512 -2.261
2 1.05672 13.5425 -2.44575
2 -0.307294 11.9567 -4.66984
2 1.04662 13.0262 -4.9689
2 -1.60871 13.8716 -3.71042
2 -0.228441 14.9182 -3.9357
2 -1.861 13.602 -6.15286
2 -0.362491 14.4639 -6.43209
2 -2.87497 15.6737 -5.18868
2 -1.35322 16.5152 -5.36106
2 -3.01397 15.4233 -7.67276
2 -1.46238 16.2145 -7.84433
2 -3.99042 17.4927 -6.69666
2 -2.43126 18.2849 -6.77926
2 -4.00068 17.2491 -9.18262
2 -2.43477 18.022 -9.26888
2 -4.99292 19.336 -8.246
2 -3.42334 20.1149 -8.28271
2 -4.85795 19.0111 -10.7347
2 -3.3194 19.8427 -10.7506
2 -5.95049 21.0913 -9.82804
2 -4.41313 21.9285 -9.93273
2 -5.8283 20.6005 -12.291
2 -4.34126 21.5128 -12.3839
2 -7.04999 22.6512 -11.5429
2 -5.56421 23.5745 -11.6615
2 -6.89265 22.0782 -13.9756
2 -5.40663 22.9932 -14.0977
2 -8.1216 24.162 -13.329
2 -6.63487 25.0741 -13.4566
2 -7.9712 23.5614 -15.758
2 -6.47015 24.449 -15.892
2 -7.65622 26.5759 -15.3084
2 -9.17371 25.6891 -15.1532
2 -8.37824 25.8089 -16.7207
1 1.18519 5.66223 -27.4304
1 1.62435 6.34544 -26.1329
1 1.08885 5.63269 -24.8846
1 1.49986 6.34021 -23.5896
1 0.955282 5.64964 -22.3306
1 1.35753 6.40386 -21.0576
1 0.810958 5.78742 -19.7621
1 1.22889 6.62275 -18.5443
1 0.67202 6.11971 -17.206
1 1.17119 6.98463 -16.0381
1 0.56732 6.59889 -14.682
1 1.19395 7.38714 -13.5196
1 0.542605 7.05064 -12.1722
1 1.26054 7.66187 -10.9565
1 0.582844 7.2241 -9.64902
1 1.29081 7.67173 -8.36121
1 0.560444 7.11876 -7.1259
1 1.13308 7.59224 -5.7829
1 0.355885 7.00782 -4.59034
1 0.852873 7.54116 -3.24203
1 0.191265 6.87668 -2.02595
1 0.70665 7.50353 -0.726861
1 0.0910096 6.94627 0.561571
1 0.795266 7.56642 1.77332
1 0.189069 7.20673 3.13162
1 1.00744 7.84983 4.25644
1 0.332287 7.78447 5.6288
1 1.21639 8.42754 6.7013
1 0.464599 8.71327 8.00419
1 1.3838 9.30891 9.07254
2 1.60463 6.1739 -28.2972
2 1.51845 4.62473 -27.4612
2 0.100331 5.67092 -27.5326
2 2.71353 6.3808 -26.0985
2 1.27894 7.37986 -26.1431
2 1.45374 4.60505 -24.8676
2 0.000794557 5.57841 -24.9356
2 2.58784 6.38856 -23.5343
2 1.14285 7.37003 -23.6156
2 1.32698 4.626 -22.2848
2 -0.131556 5.58904 -22.3911
2 2.44511 6.45073 -21.0017
2 1.00741 7.43285 -21.1346
2 1.1766 4.76615 -19.6543
2 -0.276276 5.7327 -19.8142
2 2.31753 6.64771 -18.4895
2 0.903135 7.65215 -18.6924
2 0.971487 5.08326 -17.0469
2 -0.417845 6.13398 -17.2358
2 2.25764 6.91017 -15.9819
2 0.941964 8.0315 -16.24
2 0.713564 5.53182 -14.5102
2 -0.50954 6.76798 -14.7041
2 2.26021 7.1647 -13.4722
2 1.10497 8.45745 -13.7078
2 0.521722 5.96709 -12.0556
2 -0.497105 7.37973 -12.1845
2 2.30342 7.34352 -10.9515
2 1.26169 8.74993 -11.0305
2 0.5122 6.13616 -9.64183
2 -0.441406 7.59788 -9.64184
2 2.32446 7.3244 -8.36333
2 1.32128 8.76068 -8.3183
2 0.582921 6.02918 -7.15644
2 -0.489143 7.408 -7.17701
2 2.18194 7.30452 -5.71052
2 1.10139 8.68097 -5.73825
2 0.441801 5.92129 -4.60305
2 -0.703559 7.24076 -4.69533
2 1.93217 7.40501 -3.17978
2 0.669395 8.61337 -3.20036
2 0.403562 5.80694 -2.02844
2 -0.891207 6.98927 -2.08446
2 1.78564 7.3623 -0.684216
2 0.537561 8.58004 -0.759773
2 0.192887 5.8608 0.588713
2 -0.975414 7.1725 0.587835
2 1.84557 7.27404 1.76246
2 0.775865 8.65039 1.66743
2 0.16302 6.12437 3.2624
2 -0.840494 7.56169 3.17204
2 1.98788 7.37569 4.30582
2 1.18541 8.89615 4.00815
2 0.118753 6.74899 5.89637
2 -0.623676 8.30571 5.57982
2 2.07035 7.77849 6.8982
2 1.62198 9.36503 6.31882
2 0.0201852 7.79349 8.38603
2 -0.358023 9.40307 7.81277
2 1.83304 10.2419 8.73267
2 2.188 8.61895 9.32902
2 0.826598 9.52262 9.98528
460
 Atoms. Timestep: 1000
1 -15.1042 11.6207 1.02579
1 -14.3294 12.927 1.05815
1 -14.4495 13.6427 2.40189
1 -13.9843 15.0916 2.18981
1 -14.0197 15.9924 3.43559
1 -14.117 17.5157 3.15317
1 -12.7359 18.1414 3.15182
1 -12.6463 19.6538 3.18396
1 -11.2016 19.8673 2.78062
1 -10.6776 21.228 3.12558
1 -9.2878 21.2159 2.56208
1 -8.33868 21.5536 3.66329
1 -6.91496 21.3562 3.16171
1 -6.627 20.1117 2.2825
1 -5.18178 19.6357 2.41814
1 -4.97867 18.402 1.52758
1 -3.54366 17.9159 1.74618
1 -3.0544 16.828 0.804383
1 -1.55546 16.4782 0.962425
1 -1.1161 15.2488 0.115516
1 0.409304 14.8945 0.173485
1 1.3979 15.9219 -0.338009
1 2.60605 16.1716 0.553362
1 3.49181 14.96 0.644928
1 4.28367 14.6272 -0.606566
1 5.06981 13.3485 -0.277802
1 6.22502 13.4593 0.756797
1 7.40623 12.4527 0.771223
1 8.76187 12.9042 1.48008
1 9.7128 11.8576 2.12951
2 -14.9504 11.1111 0.077276
2 -14.7631 10.9513 1.81712
2 -16.1719 11.7876 1.15725
2 -13.2754 12.7318 0.841007
2 -14.6926 13.5738 0.265258
2 -13.8497 13.1272 3.15858
2 -15.4837 13.6365 2.74057
2 -12.9766 15.0845 1.77212
2 -14.6357 15.536 1.43979
2 -13.1619 15.7642 4.06599
2 -14.9104 15.7273 4.00534
2 -14.6382 17.7166 2.21932
2 -14.701 17.9863 3.94591
2 -12.2133 17.7625 2.27372
2 -12.2002 17.7757 4.02997
2 -13.344 20.138 2.49885
2 -12.8266 20.0261 4.19231
2 -11.0951 19.6729 1.70968
2 -10.5852 19.1283 3.29888
2 -11.2759 21.9878 2.62686
2 -10.6984 21.4266 4.2031
2 -9.19114 21.8965 1.72087
2 -9.11326 20.2174 2.17186
2 -8.50483 22.5771 4.0024
2 -8.51147 20.8934 4.51429
2 -6.28563 21.3206 4.05106
2 -6.58905 22.2497 2.62847
2 -7.26416 19.2497 2.4812
2 -6.76737 20.4139 1.24504
2 -4.96883 19.3812 3.45784
2 -4.49222 20.4309 2.13582
2 -5.67838 17.6199 1.8252
2 -5.19785 18.598 0.473791
2 -3.44978 17.5629 2.77538
2 -2.89012 18.7839 1.6569
2 -3.61733 15.9193 1.00709
2 -3.23866 17.1171 -0.232336
2 -1.36069 16.2089 1.99879
2 -0.946465 17.3567 0.744392
2 -1.69007 14.3718 0.430173
2 -1.46192 15.3886 -0.913303
2 0.538889 13.9672 -0.381612
2 0.605382 14.6752 1.22036
2 1.67124 15.7067 -1.36629
2 0.873121 16.8695 -0.343064
2 2.22444 16.498 1.51773
2 3.14316 17.0831 0.280909
2 4.20609 15.1273 1.44899
2 2.89855 14.1233 1.00213
2 4.9156 15.4764 -0.847592
2 3.65353 14.5099 -1.48324
2 4.33135 12.6882 0.169855
2 5.31063 12.7331 -1.13685
2 5.7894 13.3547 1.74698
2 6.62489 14.4716 0.713009
2 7.02711 11.5734 1.29547
2 7.63652 12.2 -0.2612
2 8.52209 13.6261 2.26042
2 9.39175 13.4532 0.775926
2 9.84103 12.0782 3.1932
2 10.7025 11.8889 1.66751
2 9.34657 10.8342 2.0477
1 -15.576 -12.5303 33.4568
1 -15.5527 -11.2842 32.5639
1 -15.0063 -11.6049 31.1714
1 -14.8294 -10.3799 30.2686
1 -14.4753 -10.8349 28.8511
1 -14.2161 -9.70118 27.8576
1 -14.1273 -10.2613 26.434
1 -13.7683 -9.20426 25.3915
1 -13.7298 -9.80401 23.9847
1 -13.289 -8.7896 22.9296
1 -13.2483 -9.42028 21.5401
1 -13.0157 -8.39881 20.4286
1 -12.9723 -9.10053 19.0766
1 -13.1 -8.15084 17.8906
1 -13.087 -8.96972 16.6049
1 -13.1795 -8.13168 15.3359
1 -13.1931 -9.06087 14.1266
1 -13.0839 -8.31387 12.8027
1 -13.1666 -9.2786 11.6212
1 -12.708 -8.62733 10.3188
1 -12.8418 -9.58677 9.13825
1 -12.2483 -9.01947 7.84547
1 -12.4381 -9.98182 6.67008
1 -11.9816 -9.39028 5.33515
1 -12.2809 -10.3466 4.17816
1 -11.9005 -9.7683 2.81387
1 -12.2056 -10.7592 1.68969
1 -11.7429 -10.2607 0.32038
1 -11.8636 -11.3568 -0.74018
1 -11.5157 -10.8561 -2.14266
2 -16.0675 -12.321 34.4068
2 -16.1156 -13.3459 32.9746
2 -14.568 -12.8791 33.6786
2 -16.5613 -10.8819 32.4799
2 -14.9435 -10.516 33.0387
2 -15.6826 -12.3097 30.6885
2 -14.0482 -12.1138 31.2696
2 -15.7488 -9.79465 30.2478
2 -14.0462 -9.73627 30.6697
2 -15.2937 -11.4492 28.4751
2 -13.5983 -11.4821 28.8875
2 -15.0238 -8.96922 27.9071
2 -13.2935 -9.18095 28.1195
2 -15.0805 -10.7202 26.1671
2 -13.3785 -11.0556 26.4071
2 -14.491 -8.38936 25.4262
2 -12.7948 -8.77636 25.6324
2 -14.7184 -10.1882 23.7326
2 -13.0478 -10.6539 23.9751
2 -13.9794 -7.94636 22.933
2 -12.3034 -8.39668 23.1796
2 -14.192 -9.93311 21.3571
2 -12.4678 -10.1813 21.5113
2 -13.822 -7.6667 20.4379
2 -12.0875 -7.85217 20.5956
2 -13.7903 -9.81996 19.0255
2 -12.0503 -9.67624 18.996
2 -14.0282 -7.58228 17.9628
2 -12.2767 -7.43623 17.8905
2 -13.9166 -9.67546 16.6259
2 -12.1741 -9.56439 16.5747
2 -14.0815 -7.51988 15.3474
2 -12.3279 -7.45302 15.2817
2 -14.1067 -9.65668 14.1369
2 -12.363 -9.76429 14.2042
2 -13.8722 -7.56437 12.7245
2 -12.1324 -7.78116 12.7759
2 -14.1891 -9.64547 11.5189
2 -12.5386 -10.1477 11.8189
2 -13.2915 -7.72673 10.1259
2 -11.6672 -8.31696 10.4197
2 -13.8947 -9.82224 8.98346
2 -12.343 -10.5269 9.37405
2 -12.7269 -8.06917 7.61516
2 -11.1873 -8.81404 7.98509
2 -13.4927 -10.2478 6.59973
2 -11.894 -10.9057 6.86339
2 -12.5009 -8.44676 5.1656
2 -10.9148 -9.1663 5.37373
2 -13.3428 -10.5943 4.17852
2 -11.7417 -11.2814 4.33546
2 -12.4388 -8.83563 2.64301
2 -10.8369 -9.52424 2.81096
2 -13.2769 -10.9645 1.66101
2 -11.7111 -11.7055 1.90787
2 -12.3347 -9.39178 0.0322493
2 -10.7059 -9.93109 0.380456
2 -12.8807 -11.7474 -0.74716
2 -11.2125 -12.1924 -0.484561
2 -10.4837 -10.5081 -2.19117
2 -12.1647 -10.0345 -2.44342
2 -11.6327 -11.6538 -2.87612
1 -1.4694 -14.7036 -8.3791
1 -0.899419 -15.0401 -6.99661
1 -0.162516 -13.8437 -6.39297
1 0.509357 -14.1323 -5.04729
1 1.06467 -12.8305 -4.46671
1 1.78138 -12.9788 -3.12434
1 2.03335 -11.5963 -2.51406
1 2.83053 -11.6456 -1.21228
1 3.02488 -10.2424 -0.636891
1 3.9062 -10.2353 0.611141
1 4.11653 -8.81226 1.1213
1 4.83747 -8.75785 2.46596
1 5.03986 -7.30718 2.88437
1 5.40674 -7.14228 4.35403
1 5.60797 -5.6597 4.64581
1 6.01302 -5.37068 6.08514
1 6.23056 -3.87159 6.25839
1 6.76619 -3.52155 7.64013
1 6.93655 -2.01366 7.80942
1 7.77942 -1.68746 9.03906
1 7.9383 -0.182993 9.24119
1 8.89702 0.139862 10.3896
1 8.99774 1.64388 10.65
1 9.85818 1.96487 11.8731
1 9.86498 3.46531 12.1731
1 10.5883 3.7968 13.479
1 10.6101 5.30244 13.7402
1 11.3525 5.65737 15.0284
1 11.5419 7.16843 15.1705
1 12.1958 7.55018 16.4993
2 -2.07786 -15.5235 -8.76031
2 -2.09785 -13.8138 -8.33545
2 -0.675367 -14.519 -9.10188
2 -1.71138 -15.3438 -6.33729
2 -0.22552 -15.8916 -7.08312
2 -0.873114 -13.0273 -6.26811
2 0.590263 -13.493 -7.09792
2 -0.211734 -14.5667 -4.3547
2 1.30818 -14.8619 -5.18152
2 0.236927 -12.1319 -4.3437
2 1.74592 -12.3741 -5.18577
2 1.17158 -13.5692 -2.43872
2 2.7229 -13.5129 -3.26103
2 1.07742 -11.1034 -2.33009
2 2.56995 -10.9787 -3.2372
2 2.31909 -12.2771 -0.486097
2 3.80306 -12.1007 -1.40169
2 2.05097 -9.81353 -0.400009
2 3.47474 -9.60448 -1.39726
2 3.43944 -10.8433 1.3859
2 4.87243 -10.6873 0.38684
2 3.14707 -8.32474 1.21945
2 4.67896 -8.24357 0.380089
2 4.24403 -9.2803 3.21509
2 5.79932 -9.26751 2.4094
2 4.12011 -6.75111 2.69937
2 5.806 -6.85425 2.25515
2 4.61564 -7.54703 4.98688
2 6.31967 -7.69489 4.57673
2 4.6892 -5.12063 4.41741
2 6.37246 -5.27012 3.97385
2 5.24192 -5.71915 6.77216
2 6.92851 -5.91217 6.32472
2 5.29235 -3.34353 6.08349
2 6.93412 -3.51798 5.50352
2 6.09813 -3.9064 8.41139
2 7.72886 -4.01535 7.77815
2 5.95786 -1.53693 7.88422
2 7.42379 -1.60072 6.9258
2 7.3249 -2.1283 9.92672
2 8.76507 -2.14145 8.92853
2 6.96292 0.260373 9.44098
2 8.31099 0.274944 8.32476
2 8.55321 -0.357888 11.2946
2 9.88522 -0.260956 10.1659
2 7.99561 2.0448 10.8015
2 9.40732 2.14275 9.77238
2 9.46068 1.42955 12.7357
2 10.8767 1.60727 11.7166
2 8.83857 3.82866 12.2305
2 10.3409 3.99756 11.3487
2 10.1008 3.28502 14.3092
2 11.6103 3.41718 13.4319
2 9.58864 5.68268 13.7928
2 11.0892 5.8028 12.8989
2 10.7992 5.26758 15.8829
2 12.3275 5.17055 15.0352
2 10.5759 7.66673 15.0941
2 12.151 7.54404 14.3487
2 13.1911 7.11402 16.5868
2 11.6014 7.2108 17.3468
2 12.2984 8.63219 16.5805
1 -1.77728 0.0364275 -4.43936
1 -0.437809 0.7282 -4.61392
1 0.411029 -0.0925129 -5.54105
1 1.86344 -0.022001 -5.18041
1 2.81706 0.656634 -6.20362
1 4.13295 1.24639 -5.55587
1 4.4824 2.81428 -5.76292
1 5.78718 3.33746 -5.0457
1 6.16821 4.82535 -5.04753
1 5.57788 5.68832 -3.91011
1 6.12383 7.17232 -4.2171
1 5.22698 8.36919 -3.75925
1 3.73933 8.21274 -4.00195
1 2.87663 9.40096 -3.43962
1 1.43395 9.41077 -3.77897
1 0.571 8.40365 -2.93535
1 -0.882994 8.28077 -3.59276
1 -1.94091 7.24455 -2.9549
1 -3.41155 6.98562 -3.50561
1 -4.02828 8.04218 -4.43419
1 -5.01265 8.90065 -3.60974
1 -4.43585 10.0019 -2.71153
1 -4.20973 11.3723 -3.38275
1 -2.94459 12.1314 -2.95259
1 -2.6626 13.0822 -4.14158
1 -1.27411 13.7856 -4.29344
1 -0.394346 13.7843 -5.53951
1 -0.620225 14.7095 -6.74773
1 0.0491287 14.0505 -7.96823
1 1.30707 14.9041 -8.17515
2 -2.42536 0.644364 -3.80944
2 -2.28974 -0.169053 -5.38068
2 -1.63367 -0.911161 -3.91677
2 -0.486639 1.7364 -5.02156
2 0.0128903 0.80539 -3.62346
2 0.224751 0.153893 -6.58976
2 0.0364386 -1.11039 -5.43904
2 1.99773 0.524813 -4.23394
2 2.18549 -1.05045 -5.03051
2 2.29915 1.46418 -6.70889
2 3.05716 -0.104859 -6.94815
2 4.17617 0.973499 -4.49961
2 4.98119 0.701318 -5.96073
2 3.63204 3.4571 -5.4676
2 4.58862 3.03389 -6.83453
2 5.9732 2.84696 -4.08955
2 6.53958 2.88114 -5.6877
2 5.8789 5.25224 -6.01641
2 7.25396 4.8975 -5.06106
2 4.54092 5.46136 -4.01695
2 5.90369 5.31168 -2.95062
2 6.26692 7.21017 -5.30568
2 7.11916 7.34295 -3.79203
2 5.39436 8.52351 -2.67635
2 5.59161 9.31211 -4.28142
2 3.4383 7.21722 -3.63407
2 3.47693 8.0418 -5.02521
2 2.76188 9.33348 -2.38572
2 3.30656 10.3844 -3.61344
2 1.38907 9.11337 -4.83012
2 1.07734 10.4544 -3.73055
2 1.07201 7.44475 -2.80668
2 0.398186 8.85816 -1.95151
2 -0.790224 8.03739 -4.65198
2 -1.31971 9.27962 -3.65282
2 -1.5334 6.23099 -2.98304
2 -2.04887 7.45431 -1.8899
2 -3.98894 7.13133 -2.60024
2 -3.65662 5.96665 -3.82146
2 -3.24103 8.62061 -4.9186
2 -4.60751 7.53012 -5.21542
2 -5.66482 8.28399 -2.97661
2 -5.72383 9.29109 -4.33705
2 -5.15934 10.1419 -1.90411
2 -3.50784 9.65581 -2.27045
2 -5.04655 12.0638 -3.22512
2 -4.15798 11.1884 -4.4495
2 -3.14272 12.6844 -2.03036
2 -2.1469 11.4387 -2.70018
2 -3.36399 13.9192 -4.03172
2 -2.98998 12.6787 -5.10377
2 -1.3379 14.8105 -3.90723
2 -0.618345 13.2612 -3.59611
2 -0.356277 12.7873 -5.8704
2 0.622719 14.0227 -5.26037
2 -1.67877 14.9213 -6.78834
2 -0.131453 15.6379 -6.45011
2 -0.488393 13.8499 -8.90194
2 0.428466 13.092 -7.64074
2 1.16505 15.7254 -8.88065
2 2.10298 14.3225 -8.65539
2 1.73459 15.2699 -7.22237
1 -1.28081 5.51802 -13.6355
1 -1.80802 6.40524 -14.8025
1 -0.863278 7.35104 -15.5849
1 0.322922 6.66941 -16.3111
1 1.49244 6.37759 -15.3455
1 2.38632 7.62019 -15.208
1 3.45905 7.45252 -14.1201
1 4.31647 8.70318 -13.8927
1 3.67929 10.0399 -13.3754
1 2.5615 10.1357 -12.3221
1 2.54447 9.04631 -11.2433
1 1.91251 9.60067 -9.95531
1 2.33575 8.90652 -8.67279
1 1.33104 7.8114 -8.36188
1 1.89212 7.02477 -7.17733
1 0.944583 5.88898 -6.85618
1 1.44791 5.04159 -5.69586
1 0.663914 5.10765 -4.385
1 1.52458 4.50376 -3.19878
1 1.03415 3.86865 -1.84202
1 0.510387 4.98785 -0.998648
1 1.50037 5.89173 -0.287747
1 0.873708 6.69785 0.911912
1 1.74361 7.83685 1.54024
1 1.03431 8.8041 2.55578
1 2.02804 9.58524 3.52177
1 1.4978 10.0509 4.94182
1 1.51891 11.5349 5.48001
1 0.152339 12.0238 5.98738
1 -0.682181 11.1794 7.02845
2 -2.12484 5.39497 -12.9568
2 -1.02613 4.50388 -13.9439
2 -0.480772 5.92605 -13.0183
2 -2.34444 5.7655 -15.5028
2 -2.56683 7.05561 -14.3726
2 -0.493678 8.09564 -14.8823
2 -1.42695 7.93484 -16.3162
2 -0.00565048 5.74844 -16.7927
2 0.68093 7.32309 -17.1081
2 2.0903 5.51124 -15.6358
2 1.09912 6.15726 -14.3632
2 2.82647 7.87811 -16.1723
2 1.75934 8.46928 -14.9345
2 4.12572 6.67271 -14.4881
2 3.03258 7.05145 -13.2003
2 5.20589 8.45954 -13.3096
2 4.72378 8.91714 -14.8827
2 3.28259 10.5514 -14.2508
2 4.51614 10.6643 -13.0596
2 2.71006 11.1057 -11.8486
2 1.57239 10.1863 -12.7855
2 3.56545 8.69667 -11.0889
2 1.94897 8.1933 -11.5681
2 2.16278 10.6523 -9.8349
2 0.825591 9.56385 -10.0313
2 2.30629 9.62487 -7.85038
2 3.37738 8.59267 -8.74295
2 0.424785 8.32109 -8.03163
2 1.06951 7.17838 -9.21427
2 2.01928 7.62811 -6.30756
2 2.87902 6.62716 -7.4521
2 -0.0800083 6.24045 -6.72381
2 0.901944 5.25818 -7.74343
2 2.44351 5.42603 -5.45173
2 1.55462 4.00703 -6.01877
2 0.510641 6.15678 -4.22276
2 -0.331191 4.65661 -4.46112
2 2.24427 5.27648 -2.89535
2 2.07442 3.64633 -3.57926
2 0.187771 3.22444 -2.04563
2 1.83916 3.25249 -1.45555
2 -0.114268 4.50847 -0.241399
2 -0.104765 5.58747 -1.65697
2 2.32648 5.27784 0.0871716
2 1.87424 6.60811 -0.998711
2 0.673801 6.01532 1.76736
2 -0.0594983 7.13124 0.608448
2 2.58744 7.39529 2.07243
2 2.16124 8.45742 0.747857
2 0.346782 8.21209 3.1583
2 0.380077 9.51122 2.04012
2 2.89735 8.95001 3.70476
2 2.44463 10.4444 2.99543
2 1.92412 9.36093 5.67305
2 0.454034 9.76009 4.90028
2 2.29554 11.6838 6.23393
2 1.77396 12.165 4.6289
2 -0.438986 12.2323 5.09944
2 0.337698 13.0036 6.43203
2 -0.595635 10.1021 6.91666
2 -1.73904 11.4025 6.87982
2 -0.440991 11.4243 8.06441
