ITEM: TIMESTEP
224
ITEM: NUMBER OF ATOMS
5
ITEM: BOX BOUNDS pp pp pp
0.0000000000000000e+00 1.9576986000000002e+01
0.0000000000000000e+00 1.5176166000000000e+01
-1.5176166000000000e+01 9.1056995999999998e+01
ITEM: ATOMS id type x y z vx vy vz fx fy fz
2301 1 17.8521 11.1148 75.082 0 0 0 -0.207123 -0.474792 -0.216792
2302 2 16.8466 10.7134 75.2246 0 0 0 1.24156 0.340165 -0.236107
2303 2 18.2667 10.7316 74.147 0 0 0 -0.520227 0.388545 1.25864
2304 2 18.4874 10.8071 75.9155 0 0 0 -0.780604 0.433199 -1.18726
2305 2 17.8051 12.2052 75.04 0 0 0 0.215766 -1.56742 0.130072
ITEM: TIMESTEP
225
ITEM: NUMBER OF ATOMS
5
ITEM: BOX BOUNDS pp pp pp
0.0000000000000000e+00 1.9576986000000002e+01
0.0000000000000000e+00 1.5176166000000000e+01
-1.5176166000000000e+01 9.1056995999999998e+01
ITEM: ATOMS id type x y z vx vy vz fx fy fz
2301 1 17.852 11.1144 75.0818 0 0 0 -0.0541351 -0.13401 -0.0228485
2302 2 16.8477 10.7136 75.2244 0 0 0 0.408466 -0.0114638 -0.130624
2303 2 18.2663 10.732 74.1481 0 0 0 -0.190147 0.0383908 0.453686
2304 2 18.4867 10.8075 75.9145 0 0 0 -0.368935 0.173576 -0.627463
2305 2 17.8052 12.204 75.0401 0 0 0 0.154196 -0.946862 0.0758688
ITEM: TIMESTEP
226
ITEM: NUMBER OF ATOMS
5
ITEM: BOX BOUNDS pp pp pp
0.0000000000000000e+00 1.9576986000000002e+01
0.0000000000000000e+00 1.5176166000000000e+01
-1.5176166000000000e+01 9.1056995999999998e+01
ITEM: ATOMS id type x y z vx vy vz fx fy fz
2301 1 17.8517 11.1137 75.0816 0 0 0 -0.0428371 -0.207738 -0.0672098
2302 2 16.8496 10.7139 75.2239 0 0 0 -1.13076 -0.623514 0.0959159
2303 2 18.2654 10.7324 74.1502 0 0 0 0.443424 -0.588332 -1.05842
2304 2 18.4852 10.8082 75.9121 0 0 0 0.690324 -0.448024 0.831264
2305 2 17.8058 12.2004 75.0404 0 0 0 -0.0105247 0.986994 -0.0528135
ITEM: TIMESTEP
227
ITEM: NUMBER OF ATOMS
5
ITEM: BOX BOUNDS pp pp pp
0.0000000000000000e+00 1.9576986000000002e+01
0.0000000000000000e+00 1.5176166000000000e+01
-1.5176166000000000e+01 9.1056995999999998e+01
ITEM: ATOMS id type x y z vx vy vz fx fy fz
2301 1 17.8513 11.1128 75.0813 0 0 0 -0.00815795 -0.227841 -0.0809703
2302 2 16.8494 10.7131 75.2237 0 0 0 -1.23407 -0.664443 0.118878
2303 2 18.2654 10.7317 74.1502 0 0 0 0.483412 -0.669093 -1.23407
2304 2 18.4851 10.8081 75.9114 0 0 0 0.818093 -0.626907 1.0691
2305 2 17.8062 12.1991 75.0406 0 0 0 -0.10948 1.30705 -0.124192
ITEM: TIMESTEP
228
ITEM: NUMBER OF ATOMS
5
ITEM: BOX BOUNDS pp pp pp
0.0000000000000000e+00 1.9576986000000002e+01
0.0000000000000000e+00 1.5176166000000000e+01
-1.5176166000000000e+01 9.1056995999999998e+01
ITEM: ATOMS id type x y z vx vy vz fx fy fz
2301 1 17.851 11.1115 75.0809 0 0 0 0.118633 -0.000137077 0.0473713
2302 2 16.8469 10.7111 75.2236 0 0 0 0.250613 -0.0828875 -0.0909966
2303 2 18.2663 10.7299 74.1479 0 0 0 -0.137092 -0.143448 0.087707
2304 2 18.4865 10.8069 75.9128 0 0 0 -0.173591 -0.257327 -0.179491
2305 2 17.8064 12.2003 75.0405 0 0 0 -0.108663 -0.398567 -0.115998
ITEM: TIMESTEP
229
ITEM: NUMBER OF ATOMS
5
ITEM: BOX BOUNDS pp pp pp
0.0000000000000000e+00 1.9576986000000002e+01
0.0000000000000000e+00 1.5176166000000000e+01
-1.5176166000000000e+01 9.1056995999999998e+01
ITEM: ATOMS id type x y z vx vy vz fx fy fz
2301 1 17.8509 11.11 75.0805 0 0 0 0.0303979 -0.22492 -0.0816184
2302 2 16.8446 10.7086 75.2234 0 0 0 1.76053 0.535972 -0.282703
2303 2 18.2671 10.7275 74.1455 0 0 0 -0.741488 0.438554 1.47173
2304 2 18.4878 10.8049 75.914 0 0 0 -1.02665 0.126885 -1.27687
2305 2 17.8064 12.2009 75.0401 0 0 0 -0.0727342 -1.76029 -0.082113
ITEM: TIMESTEP
230
ITEM: NUMBER OF ATOMS
5
ITEM: BOX BOUNDS pp pp pp
0.0000000000000000e+00 1.9576986000000002e+01
0.0000000000000000e+00 1.5176166000000000e+01
-1.5176166000000000e+01 9.1056995999999998e+01
ITEM: ATOMS id type x y z vx vy vz fx fy fz
2301 1 17.8509 11.1079 75.0799 0 0 0 0.0627623 -0.120204 -0.0202697
2302 2 16.8454 10.7068 75.2226 0 0 0 1.14966 0.293792 -0.186039
2303 2 18.2665 10.7256 74.1456 0 0 0 -0.478702 0.227364 0.934991
2304 2 18.4872 10.8028 75.9128 0 0 0 -0.708084 -0.0132504 -0.880435
2305 2 17.8062 12.198 75.0396 0 0 0 -0.0752293 -1.27318 -0.0998235
ITEM: TIMESTEP
231
ITEM: NUMBER OF ATOMS
5
ITEM: BOX BOUNDS pp pp pp
0.0000000000000000e+00 1.9576986000000002e+01
0.0000000000000000e+00 1.5176166000000000e+01
-1.5176166000000000e+01 9.1056995999999998e+01
ITEM: ATOMS id type x y z vx vy vz fx fy fz
2301 1 17.8509 11.1055 75.0792 0 0 0 0.0559433 -0.0644283 0.0129186
2302 2 16.8483 10.7056 75.2215 0 0 0 -0.794549 -0.479054 0.0945637
2303 2 18.265 10.7241 74.1474 0 0 0 0.33423 -0.472589 -0.805914
2304 2 18.4853 10.8008 75.91 0 0 0 0.450691 -0.497577 0.585424
2305 2 17.806 12.1929 75.0388 0 0 0 -0.0954666 0.626488 -0.13846
ITEM: TIMESTEP
232
ITEM: NUMBER OF ATOMS
5
ITEM: BOX BOUNDS pp pp pp
0.0000000000000000e+00 1.9576986000000002e+01
0.0000000000000000e+00 1.5176166000000000e+01
-1.5176166000000000e+01 9.1056995999999998e+01
ITEM: ATOMS id type x y z vx vy vz fx fy fz
2301 1 17.8511 11.1032 75.0786 0 0 0 -0.110383 -0.360113 -0.152992
2302 2 16.8496 10.7035 75.2206 0 0 0 -1.48174 -0.7367 0.198734
2303 2 18.2642 10.7218 74.1475 0 0 0 0.635095 -0.680664 -1.37246
2304 2 18.4844 10.7978 75.9085 0 0 0 0.954475 -0.61256 1.18244
2305 2 17.8055 12.1892 75.0378 0 0 0 -0.0461978 1.50099 -0.107156
ITEM: TIMESTEP
233
ITEM: NUMBER OF ATOMS
5
ITEM: BOX BOUNDS pp pp pp
0.0000000000000000e+00 1.9576986000000002e+01
0.0000000000000000e+00 1.5176166000000000e+01
-1.5176166000000000e+01 9.1056995999999998e+01
ITEM: ATOMS id type x y z vx vy vz fx fy fz
2301 1 17.8511 11.0996 75.0776 0 0 0 -0.0403402 -0.113378 -0.00936679
2302 2 16.8479 10.6994 75.2199 0 0 0 -0.412488 -0.328701 0.0181441
2303 2 18.2646 10.7176 74.1448 0 0 0 0.175834 -0.258816 -0.312171
2304 2 18.4852 10.793 75.9092 0 0 0 0.135658 -0.120569 0.0459179
2305 2 17.8048 12.1879 75.0364 0 0 0 0.0929338 -0.0703644 0.00584955
ITEM: TIMESTEP
234
ITEM: NUMBER OF ATOMS
5
ITEM: BOX BOUNDS pp pp pp
0.0000000000000000e+00 1.9576986000000002e+01
0.0000000000000000e+00 1.5176166000000000e+01
-1.5176166000000000e+01 9.1056995999999998e+01
ITEM: ATOMS id type x y z vx vy vz fx fy fz
2301 1 17.851 11.0962 75.0767 0 0 0 -0.106265 -0.24517 -0.0850063
2302 2 16.8458 10.6952 75.2193 0 0 0 0.984363 0.225888 -0.197983
2303 2 18.2653 10.7134 74.1419 0 0 0 -0.413168 0.277793 1.01016
2304 2 18.4863 10.7885 75.9099 0 0 0 -0.705961 0.354261 -1.08152
2305 2 17.8044 12.1866 75.0351 0 0 0 0.192913 -1.50725 0.102538
ITEM: TIMESTEP
235
ITEM: NUMBER OF ATOMS
5
ITEM: BOX BOUNDS pp pp pp
0.0000000000000000e+00 1.9576986000000002e+01
0.0000000000000000e+00 1.5176166000000000e+01
-1.5176166000000000e+01 9.1056995999999998e+01
ITEM: ATOMS id type x y z vx vy vz fx fy fz
2301 1 17.8507 11.0923 75.0756 0 0 0 -0.138127 -0.358837 -0.14944
2302 2 16.8456 10.6915 75.2184 0 0 0 0.883069 0.178822 -0.203149
2303 2 18.2651 10.7097 74.141 0 0 0 -0.390039 0.207736 0.878097
2304 2 18.4859 10.7847 75.9084 0 0 0 -0.564846 0.277229 -0.873547
2305 2 17.8044 12.1823 75.0341 0 0 0 0.162176 -1.20216 0.0961383
ITEM: TIMESTEP
236
ITEM: NUMBER OF ATOMS
5
ITEM: BOX BOUNDS pp pp pp
0.0000000000000000e+00 1.9576986000000002e+01
0.0000000000000000e+00 1.5176166000000000e+01
-1.5176166000000000e+01 9.1056995999999998e+01
ITEM: ATOMS id type x y z vx vy vz fx fy fz
2301 1 17.8501 11.0878 75.0742 0 0 0 0.0386415 -0.0295941 0.0363245
2302 2 16.8471 10.6882 75.217 0 0 0 -0.549997 -0.421219 -0.0288255
2303 2 18.2642 10.7065 74.1418 0 0 0 0.166896 -0.40932 -0.533045
2304 2 18.4844 10.7815 75.9053 0 0 0 0.268225 -0.231008 0.275386
2305 2 17.8046 12.1757 75.0333 0 0 0 0.0288955 0.19107 -0.00178531
ITEM: TIMESTEP
237
ITEM: NUMBER OF ATOMS
5
ITEM: BOX BOUNDS pp pp pp
0.0000000000000000e+00 1.9576986000000002e+01
0.0000000000000000e+00 1.5176166000000000e+01
-1.5176166000000000e+01 9.1056995999999998e+01
ITEM: ATOMS id type x y z vx vy vz fx fy fz
2301 1 17.8497 11.0837 75.073 0 0 0 -0.0184617 -0.260273 -0.0976528
2302 2 16.8474 10.6844 75.2158 0 0 0 -1.07874 -0.623841 0.0558438
2303 2 18.2637 10.7029 74.1415 0 0 0 0.385139 -0.642791 -1.09761
2304 2 18.4836 10.7781 75.903 0 0 0 0.746758 -0.547426 0.966463
2305 2 17.8049 12.1702 75.0325 0 0 0 -0.081663 1.17143 -0.079053
ITEM: TIMESTEP
238
ITEM: NUMBER OF ATOMS
5
ITEM: BOX BOUNDS pp pp pp
0.0000000000000000e+00 1.9576986000000002e+01
0.0000000000000000e+00 1.5176166000000000e+01
-1.5176166000000000e+01 9.1056995999999998e+01
ITEM: ATOMS id type x y z vx vy vz fx fy fz
2301 1 17.8492 11.0783 75.0715 0 0 0 0.0657282 -0.145871 -0.032811
2302 2 16.8455 10.6786 75.2144 0 0 0 -0.182487 -0.268698 -0.0572616
2303 2 18.2639 10.6973 74.1388 0 0 0 0.019159 -0.33599 -0.331455
2304 2 18.4842 10.7731 75.9023 0 0 0 0.176129 -0.395813 0.280286
2305 2 17.8051 12.1663 75.0314 0 0 0 -0.125103 0.239689 -0.111002
ITEM: TIMESTEP
239
ITEM: NUMBER OF ATOMS
5
ITEM: BOX BOUNDS pp pp pp
0.0000000000000000e+00 1.9576986000000002e+01
0.0000000000000000e+00 1.5176166000000000e+01
-1.5176166000000000e+01 9.1056995999999998e+01
ITEM: ATOMS id type x y z vx vy vz fx fy fz
2301 1 17.8488 11.0731 75.07 0 0 0 0.143734 0.0154505 0.057819
2302 2 16.8434 10.6728 75.2131 0 0 0 0.9628 0.189837 -0.196584
2303 2 18.2642 10.6914 74.1358 0 0 0 -0.436306 0.0969855 0.712717
2304 2 18.4851 10.7677 75.9023 0 0 0 -0.604169 -0.0976479 -0.716621
2305 2 17.805 12.163 75.0302 0 0 0 -0.112244 -1.11506 -0.10984
ITEM: TIMESTEP
240
ITEM: NUMBER OF ATOMS
5
ITEM: BOX BOUNDS pp pp pp
0.0000000000000000e+00 1.9576986000000002e+01
0.0000000000000000e+00 1.5176166000000000e+01
-1.5176166000000000e+01 9.1056995999999998e+01
ITEM: ATOMS id type x y z vx vy vz fx fy fz
2301 1 17.8487 11.0677 75.0685 0 0 0 -0.0187041 -0.322407 -0.133149
2302 2 16.8432 10.6672 75.2113 0 0 0 1.01567 0.245099 -0.155142
2303 2 18.2635 10.6857 74.1341 0 0 0 -0.41032 0.179997 0.806659
2304 2 18.4848 10.7619 75.9007 0 0 0 -0.541253 -0.0934175 -0.657821
2305 2 17.8047 12.1574 75.0288 0 0 0 -0.0910926 -0.923574 -0.113224
ITEM: TIMESTEP
241
ITEM: NUMBER OF ATOMS
5
ITEM: BOX BOUNDS pp pp pp
0.0000000000000000e+00 1.9576986000000002e+01
0.0000000000000000e+00 1.5176166000000000e+01
-1.5176166000000000e+01 9.1056995999999998e+01
ITEM: ATOMS id type x y z vx vy vz fx fy fz
2301 1 17.8485 11.0611 75.0667 0 0 0 0.0532062 -0.0651784 0.0172157
2302 2 16.845 10.6615 75.209 0 0 0 -0.32831 -0.287857 0.0557775
2303 2 18.262 10.6796 74.1338 0 0 0 0.167599 -0.27566 -0.356755
2304 2 18.4834 10.7553 75.8977 0 0 0 0.136831 -0.367528 0.16789
2305 2 17.8042 12.1493 75.0269 0 0 0 -0.0744242 0.0776042 -0.136954
ITEM: TIMESTEP
242
ITEM: NUMBER OF ATOMS
5
ITEM: BOX BOUNDS pp pp pp
0.0000000000000000e+00 1.9576986000000002e+01
0.0000000000000000e+00 1.5176166000000000e+01
-1.5176166000000000e+01 9.1056995999999998e+01
ITEM: ATOMS id type x y z vx vy vz fx fy fz
2301 1 17.8485 11.0546 75.0649 0 0 0 -0.0478877 -0.190313 -0.053003
2302 2 16.8461 10.6553 75.2068 0 0 0 -1.1131 -0.586814 0.181437
2303 2 18.2609 10.6731 74.1328 0 0 0 0.514866 -0.512829 -1.00056
2304 2 18.4823 10.7482 75.895 0 0 0 0.622101 -0.487453 0.732634
2305 2 17.8035 12.1416 75.0249 0 0 0 -0.0205027 0.854445 -0.113514
ITEM: TIMESTEP
243
ITEM: NUMBER OF ATOMS
5
ITEM: BOX BOUNDS pp pp pp
0.0000000000000000e+00 1.9576986000000002e+01
0.0000000000000000e+00 1.5176166000000000e+01
-1.5176166000000000e+01 9.1056995999999998e+01
ITEM: ATOMS id type x y z vx vy vz fx fy fz
2301 1 17.8483 11.0474 75.0629 0 0 0 -0.170235 -0.404642 -0.171085
2302 2 16.8452 10.6478 75.2049 0 0 0 -0.562405 -0.361012 0.095927
2303 2 18.2606 10.6654 74.1298 0 0 0 0.290784 -0.267064 -0.426115
2304 2 18.4823 10.7398 75.8937 0 0 0 0.317754 -0.220011 0.277248
2305 2 17.8028 12.1352 75.0225 0 0 0 0.0800778 0.324942 -0.0293126
ITEM: TIMESTEP
244
ITEM: NUMBER OF ATOMS
5
ITEM: BOX BOUNDS pp pp pp
0.0000000000000000e+00 1.9576986000000002e+01
0.0000000000000000e+00 1.5176166000000000e+01
-1.5176166000000000e+01 9.1056995999999998e+01
ITEM: ATOMS id type x y z vx vy vz fx fy fz
2301 1 17.8479 11.0397 75.0607 0 0 0 -0.0325086 -0.0741729 0.0174666
2302 2 16.8432 10.6398 75.2033 0 0 0 0.43294 0.000586563 -0.096522
2303 2 18.261 10.6574 74.1262 0 0 0 -0.163808 0.0742856 0.504616
2304 2 18.4829 10.7313 75.8929 0 0 0 -0.44019 0.179115 -0.732775
2305 2 17.8023 12.1296 75.0202 0 0 0 0.159924 -1.11242 0.0534506
ITEM: TIMESTEP
245
ITEM: NUMBER OF ATOMS
5
ITEM: BOX BOUNDS pp pp pp
0.0000000000000000e+00 1.9576986000000002e+01
0.0000000000000000e+00 1.5176166000000000e+01
-1.5176166000000000e+01 9.1056995999999998e+01
ITEM: ATOMS id type x y z vx vy vz fx fy fz
2301 1 17.8474 11.0321 75.0586 0 0 0 -0.123983 -0.341232 -0.137126
2302 2 16.8421 10.6321 75.2015 0 0 0 0.832176 0.150184 -0.189085
2303 2 18.261 10.6499 74.1236 0 0 0 -0.361481 0.180694 0.826166
2304 2 18.4827 10.7235 75.8908 0 0 0 -0.539492 0.241696 -0.835054
2305 2 17.802 12.1221 75.018 0 0 0 0.149537 -1.16855 0.081021
ITEM: TIMESTEP
246
ITEM: NUMBER OF ATOMS
5
ITEM: BOX BOUNDS pp pp pp
0.0000000000000000e+00 1.9576986000000002e+01
0.0000000000000000e+00 1.5176166000000000e+01
-1.5176166000000000e+01 9.1056995999999998e+01
ITEM: ATOMS id type x y z vx vy vz fx fy fz
2301 1 17.8466 11.023 75.056 0 0 0 -0.0391806 -0.249185 -0.0841507
2302 2 16.8425 10.6238 75.1992 0 0 0 -0.046777 -0.229948 -0.113955
2303 2 18.2603 10.6418 74.1224 0 0 0 -0.0511471 -0.244094 -0.0906893
2304 2 18.4814 10.7152 75.8868 0 0 0 0.0578842 -0.123241 0.0118993
2305 2 17.8021 12.1114 75.0158 0 0 0 0.0364057 -0.0958617 0.0225511
ITEM: TIMESTEP
247
ITEM: NUMBER OF ATOMS
5
ITEM: BOX BOUNDS pp pp pp
0.0000000000000000e+00 1.9576986000000002e+01
0.0000000000000000e+00 1.5176166000000000e+01
-1.5176166000000000e+01 9.1056995999999998e+01
ITEM: ATOMS id type x y z vx vy vz fx fy fz
2301 1 17.8458 11.0147 75.0536 0 0 0 0.115823 0.0118501 0.0610647
2302 2 16.8428 10.6163 75.197 0 0 0 -0.809305 -0.559813 -0.0340077
2303 2 18.2596 10.6345 74.1212 0 0 0 0.22679 -0.606471 -0.881955
2304 2 18.4804 10.7079 75.8833 0 0 0 0.497377 -0.444046 0.65019
2305 2 17.8022 12.1021 75.0139 0 0 0 -0.0731598 0.651584 -0.0498838
ITEM: TIMESTEP
248
ITEM: NUMBER OF ATOMS
5
ITEM: BOX BOUNDS pp pp pp
0.0000000000000000e+00 1.9576986000000002e+01
0.0000000000000000e+00 1.5176166000000000e+01
-1.5176166000000000e+01 9.1056995999999998e+01
ITEM: ATOMS id type x y z vx vy vz fx fy fz
2301 1 17.8453 11.006 75.0512 0 0 0 0.00512248 -0.311547 -0.123861
2302 2 16.8415 10.6073 75.1946 0 0 0 -0.303406 -0.339725 -0.0799549
2303 2 18.2593 10.6255 74.1182 0 0 0 0.036794 -0.42183 -0.462723
2304 2 18.4803 10.6992 75.881 0 0 0 0.340391 -0.432471 0.493119
2305 2 17.8022 12.0936 75.0118 0 0 0 -0.121104 0.553659 -0.0815203
ITEM: TIMESTEP
249
ITEM: NUMBER OF ATOMS
5
ITEM: BOX BOUNDS pp pp pp
0.0000000000000000e+00 1.9576986000000002e+01
0.0000000000000000e+00 1.5176166000000000e+01
-1.5176166000000000e+01 9.1056995999999998e+01
ITEM: ATOMS id type x y z vx vy vz fx fy fz
2301 1 17.8447 10.9959 75.0483 0 0 0 0.12395 -0.0433997 0.0307677
2302 2 16.8395 10.5968 75.1918 0 0 0 0.622037 0.0302779 -0.179904
2303 2 18.259 10.615 74.114 0 0 0 -0.319041 -0.0619491 0.392063
2304 2 18.4808 10.689 75.8794 0 0 0 -0.358757 -0.177504 -0.405329
2305 2 17.8019 12.0854 75.0094 0 0 0 -0.110206 -0.704951 -0.0930122
ITEM: TIMESTEP
250
ITEM: NUMBER OF ATOMS
5
ITEM: BOX BOUNDS pp pp pp
0.0000000000000000e+00 1.9576986000000002e+01
0.0000000000000000e+00 1.5176166000000000e+01
-1.5176166000000000e+01 9.1056995999999998e+01
ITEM: ATOMS id type x y z vx vy vz fx fy fz
2301 1 17.8443 10.9865 75.0457 0 0 0 0.0842536 -0.081714 0.00816456
2302 2 16.8388 10.5871 75.1889 0 0 0 0.878848 0.15843 -0.16056
2303 2 18.2582 10.6051 74.1108 0 0 0 -0.372193 0.0997842 0.684101
2304 2 18.4807 10.6792 75.8772 0 0 0 -0.553453 -0.0845483 -0.685617
2305 2 17.8014 12.0765 75.007 0 0 0 -0.0792755 -1.05453 -0.101869
ITEM: TIMESTEP
251
ITEM: NUMBER OF ATOMS
5
ITEM: BOX BOUNDS pp pp pp
0.0000000000000000e+00 1.9576986000000002e+01
0.0000000000000000e+00 1.5176166000000000e+01
-1.5176166000000000e+01 9.1056995999999998e+01
ITEM: ATOMS id type x y z vx vy vz fx fy fz
2301 1 17.8441 10.9753 75.0427 0 0 0 -0.0894212 -0.384895 -0.159829
2302 2 16.8397 10.5761 75.1852 0 0 0 0.0784142 -0.11494 0.0247249
2303 2 18.2565 10.5937 74.1085 0 0 0 0.0295487 -0.0949978 0.0425412
2304 2 18.4794 10.6676 75.8732 0 0 0 -0.0122674 -0.269952 -0.0419038
2305 2 17.8007 12.0638 75.0039 0 0 0 -0.0478393 -0.103568 -0.121631
ITEM: TIMESTEP
252
ITEM: NUMBER OF ATOMS
5
ITEM: BOX BOUNDS pp pp pp
0.0000000000000000e+00 1.9576986000000002e+01
0.0000000000000000e+00 1.5176166000000000e+01
-1.5176166000000000e+01 9.1056995999999998e+01
ITEM: ATOMS id type x y z vx vy vz fx fy fz
2301 1 17.8437 10.964 75.0395 0 0 0 0.0158167 -0.0348499 0.0430214
2302 2 16.8408 10.5655 75.1817 0 0 0 -0.934407 -0.520254 0.184903
2303 2 18.2549 10.5827 74.1065 0 0 0 0.467602 -0.428872 -0.813691
2304 2 18.4781 10.6561 75.8694 0 0 0 0.420008 -0.427923 0.457849
2305 2 17.8 12.0517 75.0008 0 0 0 -0.0104567 0.438319 -0.128509
ITEM: TIMESTEP
253
ITEM: NUMBER OF ATOMS
5
ITEM: BOX BOUNDS pp pp pp
0.0000000000000000e+00 1.9576986000000002e+01
0.0000000000000000e+00 1.5176166000000000e+01
-1.5176166000000000e+01 9.1056995999999998e+01
ITEM: ATOMS id type x y z vx vy vz fx fy fz
2301 1 17.8434 10.9524 75.0364 0 0 0 -0.155837 -0.369037 -0.148012
2302 2 16.8401 10.5537 75.1785 0 0 0 -0.659412 -0.395466 0.15206
2303 2 18.2543 10.5707 74.1027 0 0 0 0.368595 -0.282824 -0.504682
2304 2 18.4776 10.6435 75.8663 0 0 0 0.345471 -0.286087 0.314795
2305 2 17.7992 12.0402 74.9974 0 0 0 0.0597218 0.35477 -0.0710388
ITEM: TIMESTEP
254
ITEM: NUMBER OF ATOMS
5
ITEM: BOX BOUNDS pp pp pp
0.0000000000000000e+00 1.9576986000000002e+01
0.0000000000000000e+00 1.5176166000000000e+01
-1.5176166000000000e+01 9.1056995999999998e+01
ITEM: ATOMS id type x y z vx vy vz fx fy fz
2301 1 17.8427 10.9394 75.0328 0 0 0 -0.137714 -0.335438 -0.125078
2302 2 16.838 10.5404 75.1754 0 0 0 0.269395 -0.0497347 -0.0272542
2303 2 18.2542 10.5575 74.0978 0 0 0 -0.0527935 0.0359684 0.353188
2304 2 18.4778 10.6296 75.8638 0 0 0 -0.244256 0.0512499 -0.466038
2305 2 17.7985 12.0287 74.9937 0 0 0 0.12365 -0.685679 0.00768994
ITEM: TIMESTEP
255
ITEM: NUMBER OF ATOMS
5
ITEM: BOX BOUNDS pp pp pp
0.0000000000000000e+00 1.9576986000000002e+01
0.0000000000000000e+00 1.5176166000000000e+01
-1.5176166000000000e+01 9.1056995999999998e+01
ITEM: ATOMS id type x y z vx vy vz fx fy fz
2301 1 17.8418 10.9254 75.0289 0 0 0 0.0182679 -0.0368223 0.0408489
2302 2 16.8364 10.5266 75.1722 0 0 0 0.663034 0.0559979 -0.164996
2303 2 18.2541 10.5439 74.0934 0 0 0 -0.291925 0.0887123 0.652791
2304 2 18.4775 10.6154 75.8602 0 0 0 -0.549587 0.18259 -0.83341
2305 2 17.798 12.0156 74.9898 0 0 0 0.118031 -1.27863 0.0465848
ITEM: TIMESTEP
256
ITEM: NUMBER OF ATOMS
5
ITEM: BOX BOUNDS pp pp pp
0.0000000000000000e+00 1.9576986000000002e+01
0.0000000000000000e+00 1.5176166000000000e+01
-1.5176166000000000e+01 9.1056995999999998e+01
ITEM: ATOMS id type x y z vx vy vz fx fy fz
2301 1 17.8408 10.9101 75.0246 0 0 0 -0.100999 -0.427056 -0.183606
2302 2 16.8359 10.5117 75.1684 0 0 0 0.246654 -0.126321 -0.163577
2303 2 18.2534 10.5294 74.09 0 0 0 -0.177443 -0.156697 0.160217
2304 2 18.4761 10.6004 75.8546 0 0 0 -0.0397656 -0.0780464 -0.102658
2305 2 17.7977 11.9988 74.9857 0 0 0 0.028805 -0.204287 0.030709
ITEM: TIMESTEP
257
ITEM: NUMBER OF ATOMS
5
ITEM: BOX BOUNDS pp pp pp
0.0000000000000000e+00 1.9576986000000002e+01
0.0000000000000000e+00 1.5176166000000000e+01
-1.5176166000000000e+01 9.1056995999999998e+01
ITEM: ATOMS id type x y z vx vy vz fx fy fz
2301 1 17.8395 10.893 75.0198 0 0 0 0.119665 -0.0315539 0.0419883
2302 2 16.836 10.4957 75.164 0 0 0 -0.707674 -0.553271 -0.0930589
2303 2 18.2523 10.5136 74.0866 0 0 0 0.145106 -0.629535 -0.833468
2304 2 18.4745 10.5843 75.8485 0 0 0 0.488064 -0.437708 0.656256
2305 2 17.7974 11.9805 74.9814 0 0 0 -0.0888495 0.656262 -0.03151
ITEM: TIMESTEP
258
ITEM: NUMBER OF ATOMS
5
ITEM: BOX BOUNDS pp pp pp
0.0000000000000000e+00 1.9576986000000002e+01
0.0000000000000000e+00 1.5176166000000000e+01
-1.5176166000000000e+01 9.1056995999999998e+01
ITEM: ATOMS id type x y z vx vy vz fx fy fz
2301 1 17.8385 10.8764 75.0152 0 0 0 0.133961 -0.0583227 0.0220725
2302 2 16.8346 10.4792 75.1596 0 0 0 -0.493033 -0.47074 -0.122945
2303 2 18.2516 10.4971 74.0818 0 0 0 0.05106 -0.575389 -0.680592
2304 2 18.4739 10.5679 75.8439 0 0 0 0.398012 -0.457412 0.579881
2305 2 17.797 11.9641 74.9772 0 0 0 -0.134962 0.563947 -0.0592897
ITEM: TIMESTEP
259
ITEM: NUMBER OF ATOMS
5
ITEM: BOX BOUNDS pp pp pp
0.0000000000000000e+00 1.9576986000000002e+01
0.0000000000000000e+00 1.5176166000000000e+01
-1.5176166000000000e+01 9.1056995999999998e+01
ITEM: ATOMS id type x y z vx vy vz fx fy fz
2301 1 17.8377 10.8583 75.0103 0 0 0 0.00951499 -0.32908 -0.129614
2302 2 16.8322 10.4603 75.1546 0 0 0 0.608135 -2.50925e-05 -0.220802
2303 2 18.2508 10.4781 74.0752 0 0 0 -0.345489 -0.106278 0.359733
2304 2 18.4741 10.5492 75.84 0 0 0 -0.21207 -0.181573 -0.214915
2305 2 17.7963 11.9474 74.9726 0 0 0 -0.106847 -0.381617 -0.0566425
ITEM: TIMESTEP
260
ITEM: NUMBER OF ATOMS
5
ITEM: BOX BOUNDS pp pp pp
0.0000000000000000e+00 1.9576986000000002e+01
0.0000000000000000e+00 1.5176166000000000e+01
-1.5176166000000000e+01 9.1056995999999998e+01
ITEM: ATOMS id type x y z vx vy vz fx fy fz
2301 1 17.837 10.8411 75.0055 0 0 0 0.148765 0.0744319 0.101746
2302 2 16.8311 10.4429 75.1495 0 0 0 0.82641 0.100005 -0.191557
2303 2 18.2495 10.4604 74.0698 0 0 0 -0.378815 0.0477457 0.639549
2304 2 18.4738 10.5316 75.836 0 0 0 -0.582533 -0.0305445 -0.738215
2305 2 17.7954 11.9313 74.9682 0 0 0 -0.0626552 -1.18908 -0.0751389
ITEM: TIMESTEP
261
ITEM: NUMBER OF ATOMS
5
ITEM: BOX BOUNDS pp pp pp
0.0000000000000000e+00 1.9576986000000002e+01
0.0000000000000000e+00 1.5176166000000000e+01
-1.5176166000000000e+01 9.1056995999999998e+01
ITEM: ATOMS id type x y z vx vy vz fx fy fz
2301 1 17.8364 10.8206 75 0 0 0 -0.0899404 -0.341986 -0.136069
2302 2 16.8316 10.4224 75.1431 0 0 0 0.176897 -0.088094 0.0163513
2303 2 18.2471 10.4395 74.0647 0 0 0 -5.10139e-05 -0.0405972 0.16962
2304 2 18.4723 10.5106 75.8297 0 0 0 -0.1185 -0.179822 -0.208041
2305 2 17.7942 11.9096 74.9628 0 0 0 -0.0201466 -0.343266 -0.107139
ITEM: TIMESTEP
262
ITEM: NUMBER OF ATOMS
5
ITEM: BOX BOUNDS pp pp pp
0.0000000000000000e+00 1.9576986000000002e+01
0.0000000000000000e+00 1.5176166000000000e+01
-1.5176166000000000e+01 9.1056995999999998e+01
ITEM: ATOMS id type x y z vx vy vz fx fy fz
2301 1 17.8357 10.8008 74.9946 0 0 0 -0.129992 -0.317069 -0.116333
2302 2 16.8323 10.4029 75.1371 0 0 0 -0.79115 -0.441283 0.217255
2303 2 18.2449 10.4197 74.0602 0 0 0 0.461223 -0.309708 -0.630874
2304 2 18.4706 10.4905 75.8234 0 0 0 0.397067 -0.376376 0.398945
2305 2 17.7931 11.8886 74.9575 0 0 0 0.00762399 0.457356 -0.135984
ITEM: TIMESTEP
263
ITEM: NUMBER OF ATOMS
5
ITEM: BOX BOUNDS pp pp pp
0.0000000000000000e+00 1.9576986000000002e+01
0.0000000000000000e+00 1.5176166000000000e+01
-1.5176166000000000e+01 9.1056995999999998e+01
ITEM: ATOMS id type x y z vx vy vz fx fy fz
2301 1 17.8348 10.7793 74.9887 0 0 0 -0.0525033 -0.0707988 0.0212632
2302 2 16.8315 10.3815 75.1312 0 0 0 -0.928915 -0.501241 0.240085
2303 2 18.2434 10.3982 74.0543 0 0 0 0.524041 -0.337253 -0.713257
2304 2 18.4696 10.4686 75.8175 0 0 0 0.351656 -0.319814 0.303879
2305 2 17.7919 11.8673 74.9516 0 0 0 0.0457632 0.253395 -0.121153
ITEM: TIMESTEP
264
ITEM: NUMBER OF ATOMS
5
ITEM: BOX BOUNDS pp pp pp
0.0000000000000000e+00 1.9576986000000002e+01
0.0000000000000000e+00 1.5176166000000000e+01
-1.5176166000000000e+01 9.1056995999999998e+01
ITEM: ATOMS id type x y z vx vy vz fx fy fz
2301 1 17.8337 10.7592 74.9833 0 0 0 -0.226973 -0.506851 -0.231564
2302 2 16.8291 10.3608 75.1262 0 0 0 0.0813837 -0.0967421 0.0705326
2303 2 18.243 10.3777 74.0474 0 0 0 0.0884919 0.0292541 0.203818
2304 2 18.4694 10.4477 75.8126 0 0 0 -0.0863735 -0.0456834 -0.255649
2305 2 17.7909 11.8481 74.946 0 0 0 0.078131 -0.34045 -0.058641
ITEM: TIMESTEP
265
ITEM: NUMBER OF ATOMS
5
ITEM: BOX BOUNDS pp pp pp
0.0000000000000000e+00 1.9576986000000002e+01
0.0000000000000000e+00 1.5176166000000000e+01
-1.5176166000000000e+01 9.1056995999999998e+01
ITEM: ATOMS id type x y z vx vy vz fx fy fz
2301 1 17.8324 10.7393 74.9777 0 0 0 -0.0244774 -0.121047 -0.0139646
2302 2 16.8269 10.341 75.1215 0 0 0 0.599322 0.0497313 -0.101625
2303 2 18.2428 10.3583 74.0413 0 0 0 -0.216984 0.105138 0.590018
2304 2 18.469 10.4279 75.8076 0 0 0 -0.484449 0.114789 -0.724927
2305 2 17.7901 11.8293 74.9406 0 0 0 0.0549799 -1.08934 -0.0235312
ITEM: TIMESTEP
266
ITEM: NUMBER OF ATOMS
5
ITEM: BOX BOUNDS pp pp pp
0.0000000000000000e+00 1.9576986000000002e+01
0.0000000000000000e+00 1.5176166000000000e+01
-1.5176166000000000e+01 9.1056995999999998e+01
ITEM: ATOMS id type x y z vx vy vz fx fy fz
2301 1 17.8308 10.7166 74.9714 0 0 0 0.0643071 -0.0497065 0.0154006
2302 2 16.8257 10.3188 75.1161 0 0 0 0.341549 -0.10612 -0.17569
2303 2 18.2422 10.3367 74.0356 0 0 0 -0.221456 -0.135187 0.214526
2304 2 18.4675 10.4058 75.8004 0 0 0 -0.227257 -0.0438525 -0.309726
2305 2 17.7893 11.8059 74.9344 0 0 0 -0.0372054 -0.577045 -0.0217923
ITEM: TIMESTEP
267
ITEM: NUMBER OF ATOMS
5
ITEM: BOX BOUNDS pp pp pp
0.0000000000000000e+00 1.9576986000000002e+01
0.0000000000000000e+00 1.5176166000000000e+01
-1.5176166000000000e+01 9.1056995999999998e+01
ITEM: ATOMS id type x y z vx vy vz fx fy fz
2301 1 17.8295 10.696 74.9657 0 0 0 -0.0176826 -0.339704 -0.154053
2302 2 16.8253 10.2986 75.1109 0 0 0 -0.190588 -0.334515 -0.162176
2303 2 18.2412 10.317 74.0309 0 0 0 -0.0660886 -0.419275 -0.381104
2304 2 18.4658 10.3858 75.7933 0 0 0 0.313499 -0.310073 0.455639
2305 2 17.7885 11.7838 74.9288 0 0 0 -0.128254 0.524362 -0.0389338
ITEM: TIMESTEP
268
ITEM: NUMBER OF ATOMS
5
ITEM: BOX BOUNDS pp pp pp
0.0000000000000000e+00 1.9576986000000002e+01
0.0000000000000000e+00 1.5176166000000000e+01
-1.5176166000000000e+01 9.1056995999999998e+01
ITEM: ATOMS id type x y z vx vy vz fx fy fz
2301 1 17.8281 10.6742 74.9596 0 0 0 0.212696 0.163626 0.126157
2302 2 16.8244 10.2772 75.1053 0 0 0 -0.536106 -0.506107 -0.15742
2303 2 18.24 10.2959 74.0253 0 0 0 0.0283895 -0.605622 -0.74497
2304 2 18.4647 10.3646 75.787 0 0 0 0.367799 -0.382708 0.552842
2305 2 17.7874 11.762 74.923 0 0 0 -0.173228 0.494325 -0.0614396
ITEM: TIMESTEP
269
ITEM: NUMBER OF ATOMS
5
ITEM: BOX BOUNDS pp pp pp
0.0000000000000000e+00 1.9576986000000002e+01
0.0000000000000000e+00 1.5176166000000000e+01
-1.5176166000000000e+01 9.1056995999999998e+01
ITEM: ATOMS id type x y z vx vy vz fx fy fz
2301 1 17.827 10.6507 74.9531 0 0 0 0.0392981 -0.178654 -0.0767208
2302 2 16.8224 10.2527 75.0987 0 0 0 0.202783 -0.171964 -0.214465
2303 2 18.2388 10.2716 74.0177 0 0 0 -0.226654 -0.254162 -0.016637
2304 2 18.4642 10.3406 75.7811 0 0 0 0.00702692 -0.158349 0.0655248
2305 2 17.7859 11.7392 74.9164 0 0 0 -0.137468 -0.0156252 -0.0479356
ITEM: TIMESTEP
270
ITEM: NUMBER OF ATOMS
5
ITEM: BOX BOUNDS pp pp pp
0.0000000000000000e+00 1.9576986000000002e+01
0.0000000000000000e+00 1.5176166000000000e+01
-1.5176166000000000e+01 9.1056995999999998e+01
ITEM: ATOMS id type x y z vx vy vz fx fy fz
2301 1 17.8261 10.6289 74.9471 0 0 0 -0.0247652 -0.208347 -0.0985583
2302 2 16.8209 10.2301 75.0924 0 0 0 0.685989 0.0658684 -0.206092
2303 2 18.2373 10.249 74.0107 0 0 0 -0.34899 0.0435845 0.527962
2304 2 18.4637 10.3184 75.7759 0 0 0 -0.366537 0.0695352 -0.471397
2305 2 17.7843 11.7184 74.9104 0 0 0 -0.0762907 -0.685098 -0.0477744
ITEM: TIMESTEP
271
ITEM: NUMBER OF ATOMS
5
ITEM: BOX BOUNDS pp pp pp
0.0000000000000000e+00 1.9576986000000002e+01
0.0000000000000000e+00 1.5176166000000000e+01
-1.5176166000000000e+01 9.1056995999999998e+01
ITEM: ATOMS id type x y z vx vy vz fx fy fz
2301 1 17.8252 10.6074 74.9411 0 0 0 0.0375382 0.082379 0.0602704
2302 2 16.8208 10.2082 75.0859 0 0 0 0.238655 -0.0719291 -0.0577565
2303 2 18.2352 10.2271 74.0049 0 0 0 -0.0867506 0.000434543 0.229696
2304 2 18.4626 10.2971 75.7699 0 0 0 -0.299374 0.0677196 -0.44943
2305 2 17.7826 11.6969 74.9045 0 0 0 -0.0379917 -0.719703 -0.0848326
ITEM: TIMESTEP
272
ITEM: NUMBER OF ATOMS
5
ITEM: BOX BOUNDS pp pp pp
0.0000000000000000e+00 1.9576986000000002e+01
0.0000000000000000e+00 1.5176166000000000e+01
-1.5176166000000000e+01 9.1056995999999998e+01
ITEM: ATOMS id type x y z vx vy vz fx fy fz
2301 1 17.8244 10.5879 74.9357 0 0 0 -0.212584 -0.381615 -0.211808
2302 2 16.8211 10.1882 75.0798 0 0 0 -0.338646 -0.230772 0.119347
2303 2 18.2331 10.2072 74.0001 0 0 0 0.239492 -0.0822774 -0.216064
2304 2 18.461 10.2777 75.7637 0 0 0 0.177017 -0.0849864 0.122266
2305 2 17.7809 11.676 74.8989 0 0 0 -0.030731 0.214034 -0.121862
ITEM: TIMESTEP
273
ITEM: NUMBER OF ATOMS
5
ITEM: BOX BOUNDS pp pp pp
0.0000000000000000e+00 1.9576986000000002e+01
0.0000000000000000e+00 1.5176166000000000e+01
-1.5176166000000000e+01 9.1056995999999998e+01
ITEM: ATOMS id type x y z vx vy vz fx fy fz
2301 1 17.8233 10.5694 74.9304 0 0 0 -0.117449 -0.101168 -0.0605879
2302 2 16.8208 10.1695 75.0745 0 0 0 -0.734413 -0.378431 0.196284
2303 2 18.2316 10.1888 73.9952 0 0 0 0.418524 -0.196648 -0.558683
2304 2 18.4599 10.2599 75.7583 0 0 0 0.294767 -0.141499 0.261778
2305 2 17.7794 11.6573 74.8936 0 0 0 -0.0448338 0.330566 -0.152984
ITEM: TIMESTEP
274
ITEM: NUMBER OF ATOMS
5
ITEM: BOX BOUNDS pp pp pp
0.0000000000000000e+00 1.9576986000000002e+01
0.0000000000000000e+00 1.5176166000000000e+01
-1.5176166000000000e+01 9.1056995999999998e+01
ITEM: ATOMS id type x y z vx vy vz fx fy fz
2301 1 17.8219 10.5513 74.9251 0 0 0 -0.0808916 -0.0386438 -0.0371324
2302 2 16.8191 10.1506 75.0697 0 0 0 -0.285939 -0.200556 0.11107
2303 2 18.231 10.1706 73.9895 0 0 0 0.211011 -0.0440536 -0.172951
2304 2 18.4594 10.2423 75.7535 0 0 0 0.0168402 -0.00792772 -0.074302
2305 2 17.7778 11.6398 74.8881 0 0 0 -0.0633225 -0.110712 -0.147262
ITEM: TIMESTEP
275
ITEM: NUMBER OF ATOMS
5
ITEM: BOX BOUNDS pp pp pp
0.0000000000000000e+00 1.9576986000000002e+01
0.0000000000000000e+00 1.5176166000000000e+01
-1.5176166000000000e+01 9.1056995999999998e+01
ITEM: ATOMS id type x y z vx vy vz fx fy fz